[Molden Format]
[Atoms] AU
   Pt    1   18      0.0000000000     0.0000000000    -0.4593399850
   Cl    2   17     -3.1870543600     0.0000000000     2.4336349837
   Cl    3   17      3.1870543600     0.0000000000     2.4336349837
   N     4    7     -2.9768665701     0.0000000000    -3.0226675437
   H     5    1     -3.0737883154     1.5594961039    -4.1330979209
   H     6    1     -3.0737883154    -1.5594961039    -4.1330979209
   N     7    7      2.9768665701     0.0000000000    -3.0226675437
   H     8    1      3.0737883154    -1.5594961039    -4.1330979209
   H     9    1      3.0737883154     1.5594961039    -4.1330979209
   H    10    1     -4.5003773434     0.0000000000    -1.8299431499
   H    11    1      4.5003773434     0.0000000000    -1.8299431499
[GTO]
    1  0
  s      3  0
        30.0000000000         0.2714826390
        27.0000000000        -0.4222675877
        14.4083185640         0.4436158200
  s      1  0
         5.5335788010         1.0000000000
  s      1  0
         1.2986438223         1.0000000000
  s      1  0
         0.5875939311         1.0000000000
  s      1  0
         0.1384558726         1.0000000000
  s      1  0
         0.0492044599         1.0000000000
  p      4  0
        15.5000000000        -0.1567271863
        14.0000000000         0.2385341299
         6.1161212339        -0.3104137973
         1.5715586385         0.5647352509
  p      1  0
         0.7513251078         1.0000000000
  p      1  0
         0.3330646681         1.0000000000
  p      1  0
         0.0570000000         1.0000000000
  d      4  0
         8.3207937611         0.0629457986
         7.4207226520        -0.0902718471
         1.6570410639         0.1681252642
         0.7394356996         0.2504541697
  d      1  0
         0.3051085601         1.0000000000
  d      1  0
         0.1135040527         1.0000000000
  f      1  0
         0.6681300000         1.0000000000

    2  0
  s      7  0
     69507.9909450001         0.0005431490
     10426.1568800000         0.0041990464
      2373.2334061000         0.0215921417
       671.5642007100         0.0845988501
       218.4199979000         0.2475724972
        77.5722497140         0.4701693023
        28.8888152770         0.3743637072
  s      3  0
       127.1052718500         0.0251821666
        39.3395829610         0.1078611246
         7.6740679989        -0.2740882157
  s      2  0
         3.8745627630         1.3213875014
         1.8385832573         0.6863695537
  s      1  0
         0.5022905754         1.0000000000
  s      1  0
         0.1796272342         1.0000000000
  p      5  0
       666.5042328400         0.0023632664
       157.6424169000         0.0188793004
        50.2625209780         0.0872063413
        18.5360781050         0.2528561297
         7.2940532777         0.4350715482
  p      1  0
         2.9433248995         1.0000000000
  p      1  0
         1.0404970818         1.0000000000
  p      1  0
         0.3845641508         1.0000000000
  p      1  0
         0.1306964273         1.0000000000
  d      2  0
         4.6100000000         0.2000000000
         1.0110000000         1.0000000000
  d      1  0
         0.3390000000         1.0000000000
  f      1  0
         0.7060000000         1.0000000000

    3  0
  s      7  0
     69507.9909450001         0.0005431490
     10426.1568800000         0.0041990464
      2373.2334061000         0.0215921417
       671.5642007100         0.0845988501
       218.4199979000         0.2475724972
        77.5722497140         0.4701693023
        28.8888152770         0.3743637072
  s      3  0
       127.1052718500         0.0251821666
        39.3395829610         0.1078611246
         7.6740679989        -0.2740882157
  s      2  0
         3.8745627630         1.3213875014
         1.8385832573         0.6863695537
  s      1  0
         0.5022905754         1.0000000000
  s      1  0
         0.1796272342         1.0000000000
  p      5  0
       666.5042328400         0.0023632664
       157.6424169000         0.0188793004
        50.2625209780         0.0872063413
        18.5360781050         0.2528561297
         7.2940532777         0.4350715482
  p      1  0
         2.9433248995         1.0000000000
  p      1  0
         1.0404970818         1.0000000000
  p      1  0
         0.3845641508         1.0000000000
  p      1  0
         0.1306964273         1.0000000000
  d      2  0
         4.6100000000         0.2000000000
         1.0110000000         1.0000000000
  d      1  0
         0.3390000000         1.0000000000
  f      1  0
         0.7060000000         1.0000000000

    4  0
  s      6  0
     19730.8006470000         0.0002188798
      2957.8958745000         0.0016960709
       673.2213359500         0.0087954604
       190.6824949400         0.0353593826
        62.2954418980         0.1109578922
        22.6541611820         0.2498297255
  s      2  0
         8.9791477428         0.4062389615
         3.6863002370         0.2433821718
  s      1  0
         0.8466007681         1.0000000000
  s      1  0
         0.3364713377         1.0000000000
  s      1  0
         0.1364765368         1.0000000000
  p      4  0
        49.2003805100         0.0055552417
        11.3467905370         0.0380523797
         3.4273972411         0.1495367103
         1.1785525134         0.3494930523
  p      1  0
         0.4164220497         1.0000000000
  p      1  0
         0.1426082601         1.0000000000
  d      1  0
         1.6540000000         1.0000000000
  d      1  0
         0.4690000000         1.0000000000
  f      1  0
         1.0930000000         1.0000000000

    5  0
  s      3  0
        34.0613410000         0.0060251978
         5.1235746000         0.0450210940
         1.1646626000         0.2018972600
  s      1  0
         0.3272304100         1.0000000000
  s      1  0
         0.1030724100         1.0000000000
  p      1  0
         0.8000000000         1.0000000000

    6  0
  s      3  0
        34.0613410000         0.0060251978
         5.1235746000         0.0450210940
         1.1646626000         0.2018972600
  s      1  0
         0.3272304100         1.0000000000
  s      1  0
         0.1030724100         1.0000000000
  p      1  0
         0.8000000000         1.0000000000

    7  0
  s      6  0
     19730.8006470000         0.0002188798
      2957.8958745000         0.0016960709
       673.2213359500         0.0087954604
       190.6824949400         0.0353593826
        62.2954418980         0.1109578922
        22.6541611820         0.2498297255
  s      2  0
         8.9791477428         0.4062389615
         3.6863002370         0.2433821718
  s      1  0
         0.8466007681         1.0000000000
  s      1  0
         0.3364713377         1.0000000000
  s      1  0
         0.1364765368         1.0000000000
  p      4  0
        49.2003805100         0.0055552417
        11.3467905370         0.0380523797
         3.4273972411         0.1495367103
         1.1785525134         0.3494930523
  p      1  0
         0.4164220497         1.0000000000
  p      1  0
         0.1426082601         1.0000000000
  d      1  0
         1.6540000000         1.0000000000
  d      1  0
         0.4690000000         1.0000000000
  f      1  0
         1.0930000000         1.0000000000

    8  0
  s      3  0
        34.0613410000         0.0060251978
         5.1235746000         0.0450210940
         1.1646626000         0.2018972600
  s      1  0
         0.3272304100         1.0000000000
  s      1  0
         0.1030724100         1.0000000000
  p      1  0
         0.8000000000         1.0000000000

    9  0
  s      3  0
        34.0613410000         0.0060251978
         5.1235746000         0.0450210940
         1.1646626000         0.2018972600
  s      1  0
         0.3272304100         1.0000000000
  s      1  0
         0.1030724100         1.0000000000
  p      1  0
         0.8000000000         1.0000000000

   10  0
  s      3  0
        34.0613410000         0.0060251978
         5.1235746000         0.0450210940
         1.1646626000         0.2018972600
  s      1  0
         0.3272304100         1.0000000000
  s      1  0
         0.1030724100         1.0000000000
  p      1  0
         0.8000000000         1.0000000000

   11  0
  s      3  0
        34.0613410000         0.0060251978
         5.1235746000         0.0450210940
         1.1646626000         0.2018972600
  s      1  0
         0.3272304100         1.0000000000
  s      1  0
         0.1030724100         1.0000000000
  p      1  0
         0.8000000000         1.0000000000

[5D]
[9G]
[MO]
Sym= b1   
Ene=  -0.10163651430490E+03
Spin= Alpha
Occup=       2.0000000000
     1   -0.000000000000
     2    0.000000000000
     3   -0.000000000000
     4    0.000000000000
     5   -0.000000000000
     6   -0.000000000000
     7   -0.000017865139
     8    0.000000000000
     9    0.000000000000
    10    0.000115399713
    11   -0.000000000000
    12    0.000000000000
    13   -0.000165099220
    14    0.000000000000
    15   -0.000000000000
    16   -0.000037129975
    17    0.000000000000
    18    0.000000000000
    19   -0.000000000000
    20    0.000001176519
    21    0.000000000000
    22    0.000000000000
    23    0.000000000000
    24    0.000000000000
    25   -0.000091766321
    26   -0.000000000000
    27   -0.000000000000
    28   -0.000000000000
    29   -0.000000000000
    30   -0.002665777959
    31   -0.000000000000
    32   -0.000000000000
    33    0.000000000000
    34   -0.000000000000
    35   -0.000042756964
    36   -0.000000000000
    37    0.000000000000
    38    0.000000000000
    39   -0.000033357365
    40    0.000000000000
    41    0.707270200616
    42   -0.022825305735
    43   -0.007389642933
    44    0.002970238433
    45   -0.003140555218
    46    0.000031332405
    47    0.000000000000
    48   -0.000037538540
    49   -0.000049159332
    50    0.000000000000
    51    0.000054325268
    52    0.000092010662
    53   -0.000000000000
    54   -0.000094393767
    55   -0.000124791092
    56   -0.000000000000
    57    0.000105143591
    58   -0.000703262812
    59    0.000000000000
    60    0.000674906903
    61    0.000017226789
    62   -0.000074839854
    63    0.000000000000
    64    0.000028180269
    65   -0.000000000000
    66   -0.000053243776
    67    0.000257348968
    68   -0.000000000000
    69   -0.000097064824
    70    0.000000000000
    71   -0.000009243317
    72   -0.000015317669
    73    0.000000000000
    74    0.000017422143
    75   -0.000000000000
    76    0.000002541961
    77    0.000000000000
    78   -0.707270200616
    79    0.022825305735
    80    0.007389642933
    81   -0.002970238433
    82    0.003140555218
    83    0.000031332405
    84    0.000000000000
    85    0.000037538540
    86   -0.000049159332
    87   -0.000000000000
    88   -0.000054325268
    89    0.000092010662
    90    0.000000000000
    91    0.000094393767
    92   -0.000124791092
    93   -0.000000000000
    94   -0.000105143591
    95   -0.000703262812
    96    0.000000000000
    97   -0.000674906903
    98   -0.000017226789
    99   -0.000074839854
   100    0.000000000000
   101   -0.000028180269
   102    0.000000000000
   103    0.000053243776
   104    0.000257348968
   105   -0.000000000000
   106    0.000097064824
   107   -0.000000000000
   108    0.000009243317
   109   -0.000015317669
   110   -0.000000000000
   111   -0.000017422143
   112   -0.000000000000
   113    0.000002541961
   114    0.000000000000
   115    0.000002950737
   116   -0.000010176768
   117    0.000110819217
   118   -0.000467943991
   119    0.002004969722
   120   -0.000011050432
   121    0.000000000000
   122    0.000012812887
   123    0.000093785390
   124   -0.000000000000
   125   -0.000094661035
   126    0.000605614981
   127    0.000000000000
   128    0.000539539184
   129   -0.000000246788
   130   -0.000014876685
   131   -0.000000000000
   132   -0.000006096156
   133   -0.000000000000
   134   -0.000023861550
   135    0.000103489342
   136    0.000000000000
   137    0.000007800766
   138   -0.000000000000
   139    0.000000272185
   140    0.000006573676
   141    0.000000000000
   142   -0.000012003530
   143    0.000000000000
   144   -0.000004838707
   145   -0.000000000000
   146    0.000009336540
   147   -0.000049755060
   148    0.000040648247
   149    0.000002198961
   150   -0.000005057569
   151    0.000005258210
   152    0.000009336540
   153   -0.000049755060
   154    0.000040648247
   155    0.000002198961
   156    0.000005057569
   157    0.000005258210
   158   -0.000002950737
   159    0.000010176768
   160   -0.000110819217
   161    0.000467943991
   162   -0.002004969722
   163   -0.000011050432
   164    0.000000000000
   165   -0.000012812887
   166    0.000093785390
   167   -0.000000000000
   168    0.000094661035
   169    0.000605614981
   170   -0.000000000000
   171   -0.000539539184
   172    0.000000246788
   173   -0.000014876685
   174   -0.000000000000
   175    0.000006096156
   176   -0.000000000000
   177    0.000023861550
   178    0.000103489342
   179    0.000000000000
   180   -0.000007800766
   181   -0.000000000000
   182   -0.000000272185
   183    0.000006573676
   184   -0.000000000000
   185    0.000012003530
   186    0.000000000000
   187   -0.000004838707
   188    0.000000000000
   189   -0.000009336540
   190    0.000049755060
   191   -0.000040648247
   192    0.000002198961
   193   -0.000005057569
   194   -0.000005258210
   195   -0.000009336540
   196    0.000049755060
   197   -0.000040648247
   198    0.000002198961
   199    0.000005057569
   200   -0.000005258210
   201    0.000020206964
   202    0.000074036186
   203   -0.000039863411
   204    0.000072117554
   205   -0.000000000000
   206   -0.000007886317
   207   -0.000020206964
   208   -0.000074036186
   209    0.000039863411
   210    0.000072117554
   211    0.000000000000
   212    0.000007886317
Sym= a1   
Ene=  -0.10163650954426E+03
Spin= Alpha
Occup=       2.0000000000
     1    0.000046106185
     2   -0.000113388128
     3    0.000392338214
     4   -0.000776513287
     5    0.001038396516
     6    0.001118640092
     7   -0.000000000000
     8    0.000000000000
     9    0.000044979014
    10    0.000000000000
    11   -0.000000000000
    12   -0.000209691735
    13   -0.000000000000
    14    0.000000000000
    15    0.000373799720
    16   -0.000000000000
    17    0.000000000000
    18    0.000535567275
    19    0.000007368817
    20    0.000000000000
    21    0.000000000000
    22   -0.000012367861
    23    0.000000000000
    24   -0.000001740586
    25   -0.000000000000
    26   -0.000000000000
    27    0.000110928798
    28   -0.000000000000
    29    0.000255909516
    30    0.000000000000
    31   -0.000000000000
    32    0.000489260880
    33    0.000000000000
    34   -0.000011823826
    35   -0.000000000000
    36   -0.000000000000
    37    0.000043102376
    38    0.000000000000
    39    0.000000000000
    40    0.000000000000
    41    0.707256221953
    42   -0.022788922167
    43   -0.007311484711
    44    0.002730500361
    45   -0.002210839626
    46    0.000030891974
    47   -0.000000000000
    48   -0.000037192818
    49   -0.000047216390
    50   -0.000000000000
    51    0.000052690678
    52    0.000084041100
    53   -0.000000000000
    54   -0.000088149895
    55   -0.000073899989
    56    0.000000000000
    57    0.000077976150
    58   -0.000400907882
    59   -0.000000000000
    60    0.000295009309
    61    0.000021600070
    62   -0.000051984432
    63    0.000000000000
    64    0.000031569051
    65    0.000000000000
    66   -0.000058222307
    67    0.000169853375
    68   -0.000000000000
    69   -0.000110432831
    70    0.000000000000
    71   -0.000002226187
    72   -0.000022889546
    73   -0.000000000000
    74    0.000035431606
    75   -0.000000000000
    76   -0.000015846107
    77    0.000000000000
    78    0.707256221953
    79   -0.022788922167
    80   -0.007311484711
    81    0.002730500361
    82   -0.002210839626
    83   -0.000030891974
    84   -0.000000000000
    85   -0.000037192818
    86    0.000047216390
    87   -0.000000000000
    88    0.000052690678
    89   -0.000084041100
    90   -0.000000000000
    91   -0.000088149895
    92    0.000073899989
    93    0.000000000000
    94    0.000077976150
    95    0.000400907882
    96   -0.000000000000
    97    0.000295009309
    98    0.000021600070
    99    0.000051984432
   100   -0.000000000000
   101    0.000031569051
   102   -0.000000000000
   103   -0.000058222307
   104   -0.000169853375
   105    0.000000000000
   106   -0.000110432831
   107    0.000000000000
   108   -0.000002226187
   109    0.000022889546
   110   -0.000000000000
   111    0.000035431606
   112   -0.000000000000
   113    0.000015846107
   114   -0.000000000000
   115    0.000002632840
   116   -0.000009027598
   117    0.000107745407
   118   -0.000296496690
   119   -0.000395362114
   120    0.000007253729
   121    0.000000000000
   122    0.000021505591
   123    0.000034406636
   124    0.000000000000
   125   -0.000127421821
   126   -0.000088169162
   127    0.000000000000
   128   -0.000014086444
   129   -0.000008550261
   130    0.000004012429
   131    0.000000000000
   132    0.000000661501
   133   -0.000000000000
   134    0.000000156907
   135    0.000030569395
   136   -0.000000000000
   137   -0.000016317952
   138   -0.000000000000
   139   -0.000003400551
   140    0.000010654833
   141    0.000000000000
   142   -0.000014695869
   143    0.000000000000
   144    0.000002066297
   145   -0.000000000000
   146   -0.000003338133
   147    0.000081696001
   148    0.000030974306
   149    0.000005160007
   150   -0.000012090705
   151    0.000013952912
   152   -0.000003338133
   153    0.000081696001
   154    0.000030974306
   155    0.000005160007
   156    0.000012090705
   157    0.000013952912
   158    0.000002632840
   159   -0.000009027598
   160    0.000107745407
   161   -0.000296496690
   162   -0.000395362114
   163   -0.000007253729
   164    0.000000000000
   165    0.000021505591
   166   -0.000034406636
   167   -0.000000000000
   168   -0.000127421821
   169    0.000088169162
   170   -0.000000000000
   171   -0.000014086444
   172   -0.000008550261
   173   -0.000004012429
   174   -0.000000000000
   175    0.000000661501
   176   -0.000000000000
   177    0.000000156907
   178   -0.000030569395
   179    0.000000000000
   180   -0.000016317952
   181   -0.000000000000
   182   -0.000003400551
   183   -0.000010654833
   184   -0.000000000000
   185   -0.000014695869
   186    0.000000000000
   187   -0.000002066297
   188    0.000000000000
   189   -0.000003338133
   190    0.000081696001
   191    0.000030974306
   192   -0.000005160007
   193    0.000012090705
   194    0.000013952912
   195   -0.000003338133
   196    0.000081696001
   197    0.000030974306
   198   -0.000005160007
   199   -0.000012090705
   200    0.000013952912
   201   -0.000011925909
   202    0.000238549500
   203   -0.000104122506
   204    0.000077914799
   205    0.000000000000
   206   -0.000014443990
   207   -0.000011925909
   208    0.000238549500
   209   -0.000104122506
   210   -0.000077914799
   211    0.000000000000
   212   -0.000014443990
Sym= b1   
Ene=  -0.14462397015263E+02
Spin= Alpha
Occup=       2.0000000000
     1    0.000000000000
     2   -0.000000000000
     3   -0.000000000000
     4    0.000000000001
     5   -0.000000000001
     6   -0.000000000001
     7    0.000019221483
     8    0.000000000000
     9   -0.000000000000
    10    0.000252876242
    11   -0.000000000000
    12   -0.000000000000
    13   -0.000186143671
    14   -0.000000000000
    15    0.000000000000
    16    0.001278926381
    17    0.000000000000
    18   -0.000000000000
    19    0.000000000000
    20   -0.000182895024
    21   -0.000000000000
    22    0.000000000000
    23    0.000000000000
    24   -0.000000000000
    25    0.000967387611
    26   -0.000000000000
    27   -0.000000000001
    28   -0.000000000000
    29   -0.000000000000
    30   -0.001778312380
    31    0.000000000000
    32   -0.000000000000
    33   -0.000000000000
    34   -0.000000000000
    35   -0.000273891186
    36    0.000000000000
    37    0.000000000000
    38    0.000000000000
    39   -0.000246437896
    40   -0.000000000000
    41    0.000008552335
    42   -0.000017061891
    43   -0.000053055206
    44    0.000216439877
    45   -0.000666607527
    46   -0.000003958758
    47    0.000000000000
    48   -0.000005372989
    49    0.000017476920
    50    0.000000000000
    51    0.000025647767
    52   -0.000056376334
    53   -0.000000000000
    54   -0.000067892358
    55    0.000112323920
    56    0.000000000000
    57    0.000078734488
    58   -0.000467097147
    59   -0.000000000000
    60    0.000310872918
    61    0.000044686120
    62   -0.000028321038
    63    0.000000000000
    64   -0.000001253137
    65   -0.000000000000
    66   -0.000162011390
    67    0.000056051235
    68    0.000000000000
    69    0.000023161832
    70    0.000000000000
    71    0.000054837131
    72    0.000006033541
    73   -0.000000000000
    74   -0.000034861818
    75    0.000000000000
    76    0.000015459225
    77   -0.000000000000
    78   -0.000008552335
    79    0.000017061891
    80    0.000053055206
    81   -0.000216439877
    82    0.000666607529
    83   -0.000003958758
    84    0.000000000000
    85    0.000005372989
    86    0.000017476920
    87    0.000000000000
    88   -0.000025647767
    89   -0.000056376334
    90    0.000000000000
    91    0.000067892358
    92    0.000112323920
    93   -0.000000000000
    94   -0.000078734488
    95   -0.000467097148
    96    0.000000000000
    97   -0.000310872918
    98   -0.000044686120
    99   -0.000028321039
   100    0.000000000000
   101    0.000001253137
   102    0.000000000000
   103    0.000162011390
   104    0.000056051235
   105    0.000000000000
   106   -0.000023161832
   107   -0.000000000000
   108   -0.000054837131
   109    0.000006033541
   110    0.000000000000
   111    0.000034861818
   112   -0.000000000000
   113    0.000015459225
   114   -0.000000000000
   115    0.317221340628
   116    0.443453348367
   117    0.023459048829
   118   -0.014918764109
   119    0.012561040481
   120   -0.000301378657
   121    0.000000000000
   122   -0.000299997002
   123   -0.000486277724
   124   -0.000000000000
   125   -0.000293564848
   126    0.000349980597
   127    0.000000000000
   128   -0.000062709482
   129    0.000035131910
   130   -0.000022752334
   131    0.000000000000
   132   -0.000080250753
   133    0.000000000000
   134   -0.000068025860
   135   -0.000338186627
   136    0.000000000000
   137   -0.000135264164
   138    0.000000000000
   139    0.000047547408
   140   -0.000062804920
   141    0.000000000000
   142    0.000137928505
   143    0.000000000000
   144   -0.000047326819
   145   -0.000000000000
   146    0.000164932568
   147   -0.000705149331
   148   -0.001568861928
   149   -0.000081896344
   150    0.000367757447
   151   -0.000250266843
   152    0.000164932568
   153   -0.000705149331
   154   -0.001568861928
   155   -0.000081896344
   156   -0.000367757447
   157   -0.000250266843
   158   -0.317221341424
   159   -0.443453349480
   160   -0.023459048887
   161    0.014918764145
   162   -0.012561040505
   163   -0.000301378658
   164    0.000000000000
   165    0.000299997002
   166   -0.000486277724
   167   -0.000000000000
   168    0.000293564849
   169    0.000349980594
   170    0.000000000000
   171    0.000062709483
   172   -0.000035131910
   173   -0.000022752334
   174    0.000000000000
   175    0.000080250753
   176   -0.000000000000
   177    0.000068025860
   178   -0.000338186628
   179    0.000000000000
   180    0.000135264165
   181    0.000000000000
   182   -0.000047547408
   183   -0.000062804920
   184   -0.000000000000
   185   -0.000137928505
   186    0.000000000000
   187   -0.000047326819
   188    0.000000000000
   189   -0.000164932568
   190    0.000705149331
   191    0.001568861931
   192   -0.000081896344
   193    0.000367757448
   194    0.000250266844
   195   -0.000164932568
   196    0.000705149331
   197    0.001568861931
   198   -0.000081896344
   199   -0.000367757448
   200    0.000250266844
   201    0.000101554765
   202   -0.000557437408
   203   -0.001106351654
   204   -0.000296292641
   205    0.000000000000
   206    0.000268341185
   207   -0.000101554765
   208    0.000557437408
   209    0.001106351659
   210   -0.000296292642
   211   -0.000000000000
   212   -0.000268341185
Sym= a1   
Ene=  -0.14462394026575E+02
Spin= Alpha
Occup=       2.0000000000
     1   -0.000003435320
     2    0.000004913877
     3    0.000190808640
     4   -0.000777283696
     5    0.000470261496
     6    0.000526865685
     7    0.000000000000
     8    0.000000000000
     9    0.000021459918
    10    0.000000000000
    11   -0.000000000000
    12    0.000205539145
    13   -0.000000000000
    14   -0.000000000000
    15   -0.000280227677
    16    0.000000000002
    17    0.000000000000
    18    0.000311679715
    19   -0.000008579313
    20   -0.000000000000
    21   -0.000000000000
    22   -0.000123186423
    23    0.000000000000
    24    0.000116253855
    25    0.000000000001
    26   -0.000000000000
    27    0.000582140742
    28   -0.000000000000
    29    0.000190836467
    30   -0.000000000002
    31    0.000000000000
    32    0.000314523174
    33   -0.000000000000
    34    0.000101150863
    35   -0.000000000000
    36    0.000000000000
    37   -0.000342042549
    38    0.000000000000
    39   -0.000000000000
    40   -0.000000000000
    41    0.000007704414
    42   -0.000015501760
    43   -0.000048874425
    44    0.000261850601
    45   -0.000606436788
    46   -0.000000361172
    47    0.000000000000
    48   -0.000011153314
    49    0.000001401130
    50    0.000000000000
    51    0.000052795513
    52    0.000000064728
    53   -0.000000000000
    54   -0.000155584030
    55    0.000000667948
    56    0.000000000000
    57    0.000254291825
    58   -0.000310308630
    59   -0.000000000000
    60    0.000061577719
    61    0.000040181844
    62   -0.000017507410
    63    0.000000000000
    64   -0.000007624140
    65   -0.000000000000
    66   -0.000168767774
    67    0.000099974780
    68    0.000000000000
    69   -0.000002388070
    70    0.000000000000
    71    0.000052561551
    72   -0.000015846990
    73   -0.000000000000
    74   -0.000009927719
    75    0.000000000000
    76   -0.000003946153
    77   -0.000000000000
    78    0.000007704414
    79   -0.000015501760
    80   -0.000048874425
    81    0.000261850600
    82   -0.000606436787
    83    0.000000361172
    84    0.000000000000
    85   -0.000011153314
    86   -0.000001401130
    87    0.000000000000
    88    0.000052795513
    89   -0.000000064728
    90    0.000000000000
    91   -0.000155584030
    92   -0.000000667948
    93   -0.000000000000
    94    0.000254291824
    95    0.000310308629
    96    0.000000000000
    97    0.000061577718
    98    0.000040181844
    99    0.000017507410
   100    0.000000000000
   101   -0.000007624140
   102    0.000000000000
   103   -0.000168767773
   104   -0.000099974780
   105    0.000000000000
   106   -0.000002388070
   107   -0.000000000000
   108    0.000052561551
   109    0.000015846990
   110    0.000000000000
   111   -0.000009927718
   112   -0.000000000000
   113    0.000003946153
   114   -0.000000000000
   115    0.317217904115
   116    0.443480139171
   117    0.023229816762
   118   -0.014083898654
   119    0.009443495657
   120   -0.000352858510
   121    0.000000000000
   122   -0.000286480017
   123   -0.000049313618
   124   -0.000000000000
   125   -0.000351339109
   126   -0.000927447869
   127    0.000000000000
   128   -0.000103419881
   129    0.000013716261
   130   -0.000030974699
   131    0.000000000000
   132   -0.000035537847
   133    0.000000000000
   134   -0.000029227717
   135   -0.000180074367
   136    0.000000000000
   137   -0.000285951013
   138    0.000000000000
   139    0.000050055599
   140   -0.000038349475
   141    0.000000000000
   142    0.000121020701
   143    0.000000000000
   144   -0.000018828515
   145   -0.000000000000
   146    0.000071021068
   147   -0.000289311297
   148   -0.001338620042
   149    0.000004078867
   150    0.000331378957
   151   -0.000272887369
   152    0.000071021068
   153   -0.000289311297
   154   -0.001338620042
   155    0.000004078867
   156   -0.000331378957
   157   -0.000272887369
   158    0.317217903319
   159    0.443480138058
   160    0.023229816703
   161   -0.014083898617
   162    0.009443495625
   163    0.000352858509
   164    0.000000000000
   165   -0.000286480016
   166    0.000049313617
   167   -0.000000000000
   168   -0.000351339108
   169    0.000927447870
   170    0.000000000000
   171   -0.000103419881
   172    0.000013716260
   173    0.000030974699
   174    0.000000000000
   175   -0.000035537847
   176   -0.000000000000
   177   -0.000029227717
   178    0.000180074366
   179    0.000000000000
   180   -0.000285951012
   181    0.000000000000
   182    0.000050055599
   183    0.000038349475
   184   -0.000000000000
   185    0.000121020701
   186    0.000000000000
   187    0.000018828514
   188    0.000000000000
   189    0.000071021068
   190   -0.000289311296
   191   -0.001338620038
   192   -0.000004078867
   193   -0.000331378956
   194   -0.000272887368
   195    0.000071021068
   196   -0.000289311296
   197   -0.001338620038
   198   -0.000004078867
   199    0.000331378956
   200   -0.000272887368
   201    0.000142947910
   202   -0.000116703902
   203   -0.002004302585
   204   -0.000216638748
   205    0.000000000000