[Molden Format]
[Atoms] AU
   Pt    1   18      0.0000000000     0.0000000000    -0.4593376326
   Cl    2   17     -3.1870533811     0.0000000000     2.4336367417
   Cl    3   17      3.1870533811     0.0000000000     2.4336367417
   N     4    7     -2.9768642876     0.0000000000    -3.0226668898
   H     5    1     -3.0737857330     1.5594965356    -4.1330993588
   H     6    1     -3.0737857330    -1.5594965356    -4.1330993588
   N     7    7      2.9768642876     0.0000000000    -3.0226668898
   H     8    1      3.0737857330    -1.5594965356    -4.1330993588
   H     9    1      3.0737857330     1.5594965356    -4.1330993588
   H    10    1     -4.5003750136     0.0000000000    -1.8299438624
   H    11    1      4.5003750136     0.0000000000    -1.8299438624
[GTO]
    1  0
  s      3  0
        30.0000000000         0.2714826390
        27.0000000000        -0.4222675877
        14.4083185640         0.4436158200
  s      1  0
         5.5335788010         1.0000000000
  s      1  0
         1.2986438223         1.0000000000
  s      1  0
         0.5875939311         1.0000000000
  s      1  0
         0.1384558726         1.0000000000
  s      1  0
         0.0492044599         1.0000000000
  p      4  0
        15.5000000000        -0.1567271863
        14.0000000000         0.2385341299
         6.1161212339        -0.3104137973
         1.5715586385         0.5647352509
  p      1  0
         0.7513251078         1.0000000000
  p      1  0
         0.3330646681         1.0000000000
  p      1  0
         0.0570000000         1.0000000000
  d      4  0
         8.3207937611         0.0629457986
         7.4207226520        -0.0902718471
         1.6570410639         0.1681252642
         0.7394356996         0.2504541697
  d      1  0
         0.3051085601         1.0000000000
  d      1  0
         0.1135040527         1.0000000000
  f      1  0
         0.6681300000         1.0000000000

    2  0
  s      7  0
     69507.9909450001         0.0005431490
     10426.1568800000         0.0041990464
      2373.2334061000         0.0215921417
       671.5642007100         0.0845988501
       218.4199979000         0.2475724972
        77.5722497140         0.4701693023
        28.8888152770         0.3743637072
  s      3  0
       127.1052718500         0.0251821666
        39.3395829610         0.1078611246
         7.6740679989        -0.2740882157
  s      2  0
         3.8745627630         1.3213875014
         1.8385832573         0.6863695537
  s      1  0
         0.5022905754         1.0000000000
  s      1  0
         0.1796272342         1.0000000000
  p      5  0
       666.5042328400         0.0023632664
       157.6424169000         0.0188793004
        50.2625209780         0.0872063413
        18.5360781050         0.2528561297
         7.2940532777         0.4350715482
  p      1  0
         2.9433248995         1.0000000000
  p      1  0
         1.0404970818         1.0000000000
  p      1  0
         0.3845641508         1.0000000000
  p      1  0
         0.1306964273         1.0000000000
  d      2  0
         4.6100000000         0.2000000000
         1.0110000000         1.0000000000
  d      1  0
         0.3390000000         1.0000000000
  f      1  0
         0.7060000000         1.0000000000

    3  0
  s      7  0
     69507.9909450001         0.0005431490
     10426.1568800000         0.0041990464
      2373.2334061000         0.0215921417
       671.5642007100         0.0845988501
       218.4199979000         0.2475724972
        77.5722497140         0.4701693023
        28.8888152770         0.3743637072
  s      3  0
       127.1052718500         0.0251821666
        39.3395829610         0.1078611246
         7.6740679989        -0.2740882157
  s      2  0
         3.8745627630         1.3213875014
         1.8385832573         0.6863695537
  s      1  0
         0.5022905754         1.0000000000
  s      1  0
         0.1796272342         1.0000000000
  p      5  0
       666.5042328400         0.0023632664
       157.6424169000         0.0188793004
        50.2625209780         0.0872063413
        18.5360781050         0.2528561297
         7.2940532777         0.4350715482
  p      1  0
         2.9433248995         1.0000000000
  p      1  0
         1.0404970818         1.0000000000
  p      1  0
         0.3845641508         1.0000000000
  p      1  0
         0.1306964273         1.0000000000
  d      2  0
         4.6100000000         0.2000000000
         1.0110000000         1.0000000000
  d      1  0
         0.3390000000         1.0000000000
  f      1  0
         0.7060000000         1.0000000000

    4  0
  s      6  0
     19730.8006470000         0.0002188798
      2957.8958745000         0.0016960709
       673.2213359500         0.0087954604
       190.6824949400         0.0353593826
        62.2954418980         0.1109578922
        22.6541611820         0.2498297255
  s      2  0
         8.9791477428         0.4062389615
         3.6863002370         0.2433821718
  s      1  0
         0.8466007681         1.0000000000
  s      1  0
         0.3364713377         1.0000000000
  s      1  0
         0.1364765368         1.0000000000
  p      4  0
        49.2003805100         0.0055552417
        11.3467905370         0.0380523797
         3.4273972411         0.1495367103
         1.1785525134         0.3494930523
  p      1  0
         0.4164220497         1.0000000000
  p      1  0
         0.1426082601         1.0000000000
  d      1  0
         1.6540000000         1.0000000000
  d      1  0
         0.4690000000         1.0000000000
  f      1  0
         1.0930000000         1.0000000000

    5  0
  s      3  0
        34.0613410000         0.0060251978
         5.1235746000         0.0450210940
         1.1646626000         0.2018972600
  s      1  0
         0.3272304100         1.0000000000
  s      1  0
         0.1030724100         1.0000000000
  p      1  0
         0.8000000000         1.0000000000

    6  0
  s      3  0
        34.0613410000         0.0060251978
         5.1235746000         0.0450210940
         1.1646626000         0.2018972600
  s      1  0
         0.3272304100         1.0000000000
  s      1  0
         0.1030724100         1.0000000000
  p      1  0
         0.8000000000         1.0000000000

    7  0
  s      6  0
     19730.8006470000         0.0002188798
      2957.8958745000         0.0016960709
       673.2213359500         0.0087954604
       190.6824949400         0.0353593826
        62.2954418980         0.1109578922
        22.6541611820         0.2498297255
  s      2  0
         8.9791477428         0.4062389615
         3.6863002370         0.2433821718
  s      1  0
         0.8466007681         1.0000000000
  s      1  0
         0.3364713377         1.0000000000
  s      1  0
         0.1364765368         1.0000000000
  p      4  0
        49.2003805100         0.0055552417
        11.3467905370         0.0380523797
         3.4273972411         0.1495367103
         1.1785525134         0.3494930523
  p      1  0
         0.4164220497         1.0000000000
  p      1  0
         0.1426082601         1.0000000000
  d      1  0
         1.6540000000         1.0000000000
  d      1  0
         0.4690000000         1.0000000000
  f      1  0
         1.0930000000         1.0000000000

    8  0
  s      3  0
        34.0613410000         0.0060251978
         5.1235746000         0.0450210940
         1.1646626000         0.2018972600
  s      1  0
         0.3272304100         1.0000000000
  s      1  0
         0.1030724100         1.0000000000
  p      1  0
         0.8000000000         1.0000000000

    9  0
  s      3  0
        34.0613410000         0.0060251978
         5.1235746000         0.0450210940
         1.1646626000         0.2018972600
  s      1  0
         0.3272304100         1.0000000000
  s      1  0
         0.1030724100         1.0000000000
  p      1  0
         0.8000000000         1.0000000000

   10  0
  s      3  0
        34.0613410000         0.0060251978
         5.1235746000         0.0450210940
         1.1646626000         0.2018972600
  s      1  0
         0.3272304100         1.0000000000
  s      1  0
         0.1030724100         1.0000000000
  p      1  0
         0.8000000000         1.0000000000

   11  0
  s      3  0
        34.0613410000         0.0060251978
         5.1235746000         0.0450210940
         1.1646626000         0.2018972600
  s      1  0
         0.3272304100         1.0000000000
  s      1  0
         0.1030724100         1.0000000000
  p      1  0
         0.8000000000         1.0000000000

[5D]
[9G]
[MO]
Sym= b1   
Ene=  -0.10163651402109E+03
Spin= Alpha
Occup=       2.0000000000
     1   -0.000000000000
     2   -0.000000000000
     3    0.000000000000
     4   -0.000000000000
     5    0.000000000000
     6   -0.000000000000
     7   -0.000017865103
     8    0.000000000000
     9   -0.000000000000
    10    0.000115399888
    11   -0.000000000000
    12    0.000000000000
    13   -0.000165100263
    14    0.000000000000
    15   -0.000000000000
    16   -0.000037131841
    17    0.000000000000
    18   -0.000000000000
    19    0.000000000000
    20    0.000001176292
    21    0.000000000000
    22   -0.000000000000
    23    0.000000000000
    24   -0.000000000000
    25   -0.000091766308
    26   -0.000000000000
    27    0.000000000000
    28   -0.000000000000
    29    0.000000000000
    30   -0.002665772875
    31   -0.000000000000
    32   -0.000000000000
    33    0.000000000000
    34    0.000000000000
    35   -0.000042756832
    36    0.000000000000
    37   -0.000000000000
    38   -0.000000000000
    39   -0.000033357313
    40    0.000000000000
    41    0.707270200490
    42   -0.022825305430
    43   -0.007389642277
    44    0.002970236983
    45   -0.003140552412
    46    0.000031332270
    47   -0.000000000000
    48   -0.000037538431
    49   -0.000049159080
    50   -0.000000000000
    51    0.000054325168
    52    0.000092010218
    53    0.000000000000
    54   -0.000094393615
    55   -0.000124790450
    56   -0.000000000000
    57    0.000105143467
    58   -0.000703262206
    59    0.000000000000
    60    0.000674905623
    61    0.000017226687
    62   -0.000074839767
    63    0.000000000000
    64    0.000028180276
    65   -0.000000000000
    66   -0.000053243498
    67    0.000257348635
    68   -0.000000000000
    69   -0.000097064744
    70    0.000000000000
    71   -0.000009243321
    72   -0.000015317694
    73    0.000000000000
    74    0.000017422143
    75   -0.000000000000
    76    0.000002541914
    77    0.000000000000
    78   -0.707270200490
    79    0.022825305430
    80    0.007389642277
    81   -0.002970236983
    82    0.003140552412
    83    0.000031332270
    84    0.000000000000
    85    0.000037538431
    86   -0.000049159080
    87   -0.000000000000
    88   -0.000054325168
    89    0.000092010218
    90   -0.000000000000
    91    0.000094393615
    92   -0.000124790450
    93    0.000000000000
    94   -0.000105143467
    95   -0.000703262206
    96   -0.000000000000
    97   -0.000674905623
    98   -0.000017226687
    99   -0.000074839767
   100    0.000000000000
   101   -0.000028180276
   102    0.000000000000
   103    0.000053243498
   104    0.000257348635
   105   -0.000000000000
   106    0.000097064744
   107   -0.000000000000
   108    0.000009243321
   109   -0.000015317694
   110   -0.000000000000
   111   -0.000017422143
   112   -0.000000000000
   113    0.000002541914
   114    0.000000000000
   115    0.000002950730
   116   -0.000010176743
   117    0.000110818937
   118   -0.000467942886
   119    0.002004966322
   120   -0.000011050396
   121   -0.000000000000
   122    0.000012812868
   123    0.000093785402
   124   -0.000000000000
   125   -0.000094661003
   126    0.000605612466
   127    0.000000000000
   128    0.000539539302
   129   -0.000000246869
   130   -0.000014876589
   131    0.000000000000
   132   -0.000006096128
   133    0.000000000000
   134   -0.000023861229
   135    0.000103489042
   136    0.000000000000
   137    0.000007800467
   138   -0.000000000000
   139    0.000000272231
   140    0.000006573665
   141   -0.000000000000
   142   -0.000012003511
   143   -0.000000000000
   144   -0.000004838708
   145    0.000000000000
   146    0.000009336440
   147   -0.000049754959
   148    0.000040648235
   149    0.000002198896
   150   -0.000005057525
   151    0.000005258123
   152    0.000009336440
   153   -0.000049754959
   154    0.000040648235
   155    0.000002198896
   156    0.000005057525
   157    0.000005258123
   158   -0.000002950730
   159    0.000010176743
   160   -0.000110818937
   161    0.000467942886
   162   -0.002004966322
   163   -0.000011050396
   164    0.000000000000
   165   -0.000012812868
   166    0.000093785402
   167   -0.000000000000
   168    0.000094661003
   169    0.000605612466
   170   -0.000000000000
   171   -0.000539539302
   172    0.000000246869
   173   -0.000014876589
   174   -0.000000000000
   175    0.000006096128
   176   -0.000000000000
   177    0.000023861229
   178    0.000103489042
   179    0.000000000000
   180   -0.000007800467
   181   -0.000000000000
   182   -0.000000272231
   183    0.000006573665
   184   -0.000000000000
   185    0.000012003511
   186    0.000000000000
   187   -0.000004838708
   188    0.000000000000
   189   -0.000009336440
   190    0.000049754959
   191   -0.000040648235
   192    0.000002198896
   193   -0.000005057525
   194   -0.000005258123
   195   -0.000009336440
   196    0.000049754959
   197   -0.000040648235
   198    0.000002198896
   199    0.000005057525
   200   -0.000005258123
   201    0.000020206974
   202    0.000074036151
   203   -0.000039864693
   204    0.000072117476
   205   -0.000000000000
   206   -0.000007886365
   207   -0.000020206974
   208   -0.000074036151
   209    0.000039864693
   210    0.000072117476
   211    0.000000000000
   212    0.000007886365
Sym= a1   
Ene=  -0.10163650926050E+03
Spin= Alpha
Occup=       2.0000000000
     1    0.000046106592
     2   -0.000113389102
     3    0.000392341151
     4   -0.000776518410
     5    0.001038405279
     6    0.001118639283
     7    0.000000000000
     8    0.000000000000
     9    0.000044978578
    10   -0.000000000000
    11   -0.000000000000
    12   -0.000209690562
    13    0.000000000000
    14    0.000000000000
    15    0.000373798558
    16   -0.000000000000
    17   -0.000000000000
    18    0.000535565767
    19    0.000007368791
    20    0.000000000000
    21   -0.000000000000
    22   -0.000012368108
    23   -0.000000000000
    24   -0.000001740135
    25   -0.000000000000
    26    0.000000000000
    27    0.000110930003
    28    0.000000000000
    29    0.000255908567
    30    0.000000000000
    31   -0.000000000000
    32    0.000489261721
    33    0.000000000000
    34   -0.000011823789
    35    0.000000000000
    36    0.000000000000
    37    0.000043102143
    38   -0.000000000000
    39    0.000000000000
    40   -0.000000000000
    41    0.707256221889
    42   -0.022788922023
    43   -0.007311484412
    44    0.002730500292
    45   -0.002210840386
    46    0.000030891902
    47    0.000000000000
    48   -0.000037192741
    49   -0.000047216403
    50    0.000000000000
    51    0.000052690708
    52    0.000084041363
    53    0.000000000000
    54   -0.000088150074
    55   -0.000073900666
    56   -0.000000000000
    57    0.000077976472
    58   -0.000400907655
    59    0.000000000000
    60    0.000295010201
    61    0.000021600182
    62   -0.000051984590
    63   -0.000000000000
    64    0.000031569040
    65   -0.000000000000
    66   -0.000058222670
    67    0.000169854020
    68   -0.000000000000
    69   -0.000110432927
    70   -0.000000000000
    71   -0.000002226214
    72   -0.000022889685
    73   -0.000000000000
    74    0.000035431689
    75   -0.000000000000
    76   -0.000015846117
    77   -0.000000000000
    78    0.707256221889
    79   -0.022788922023
    80   -0.007311484412
    81    0.002730500292
    82   -0.002210840386
    83   -0.000030891902
    84    0.000000000000
    85   -0.000037192741
    86    0.000047216403
    87    0.000000000000
    88    0.000052690708
    89   -0.000084041363
    90    0.000000000000
    91   -0.000088150074
    92    0.000073900666
    93   -0.000000000000
    94    0.000077976472
    95    0.000400907655
    96    0.000000000000
    97    0.000295010201
    98    0.000021600182
    99    0.000051984590
   100   -0.000000000000
   101    0.000031569040
   102   -0.000000000000
   103   -0.000058222670
   104   -0.000169854020
   105    0.000000000000
   106   -0.000110432927
   107   -0.000000000000
   108   -0.000002226214
   109    0.000022889685
   110    0.000000000000
   111    0.000035431689
   112   -0.000000000000
   113    0.000015846117
   114    0.000000000000
   115    0.000002632850
   116   -0.000009027628
   117    0.000107745627
   118   -0.000296496551
   119   -0.000395365562
   120    0.000007253846
   121    0.000000000000
   122    0.000021505673
   123    0.000034406653
   124    0.000000000000
   125   -0.000127422188
   126   -0.000088169336
   127   -0.000000000000
   128   -0.000014088657
   129   -0.000008550119
   130    0.000004012599
   131   -0.000000000000
   132    0.000000661593
   133   -0.000000000000
   134    0.000000156421
   135    0.000030569009
   136   -0.000000000000
   137   -0.000016318470
   138    0.000000000000
   139   -0.000003400516
   140    0.000010654810
   141    0.000000000000
   142   -0.000014695958
   143    0.000000000000
   144    0.000002066275
   145   -0.000000000000
   146   -0.000003338302
   147    0.000081696185
   148    0.000030973893
   149    0.000005159976
   150   -0.000012090703
   151    0.000013952943
   152   -0.000003338302
   153    0.000081696185
   154    0.000030973893
   155    0.000005159976
   156    0.000012090703
   157    0.000013952943
   158    0.000002632850
   159   -0.000009027628
   160    0.000107745627
   161   -0.000296496551
   162   -0.000395365562
   163   -0.000007253846
   164    0.000000000000
   165    0.000021505673
   166   -0.000034406653
   167   -0.000000000000
   168   -0.000127422188
   169    0.000088169336
   170   -0.000000000000
   171   -0.000014088657
   172   -0.000008550119
   173   -0.000004012599
   174    0.000000000000
   175    0.000000661593
   176   -0.000000000000
   177    0.000000156421
   178   -0.000030569009
   179    0.000000000000
   180   -0.000016318470
   181   -0.000000000000
   182   -0.000003400516
   183   -0.000010654810
   184   -0.000000000000
   185   -0.000014695958
   186    0.000000000000
   187   -0.000002066275
   188    0.000000000000
   189   -0.000003338302
   190    0.000081696185
   191    0.000030973893
   192   -0.000005159976
   193    0.000012090703
   194    0.000013952943
   195   -0.000003338302
   196    0.000081696185
   197    0.000030973893
   198   -0.000005159976
   199   -0.000012090703
   200    0.000013952943
   201   -0.000011925905
   202    0.000238550638
   203   -0.000104121537
   204    0.000077915038
   205   -0.000000000000
   206   -0.000014444053
   207   -0.000011925905
   208    0.000238550638
   209   -0.000104121537
   210   -0.000077915038
   211    0.000000000000
   212   -0.000014444053
Sym= b1   
Ene=  -0.14462398963357E+02
Spin= Alpha
Occup=       2.0000000000
     1   -0.000000000000
     2    0.000000000000
     3    0.000000000000
     4   -0.000000000000
     5    0.000000000000
     6    0.000000000000
     7    0.000019222304
     8   -0.000000000000
     9    0.000000000000
    10    0.000252872077
    11   -0.000000000000
    12    0.000000000000
    13   -0.000186139014
    14    0.000000000000
    15   -0.000000000000
    16    0.001278928422
    17   -0.000000000000
    18    0.000000000000
    19   -0.000000000000
    20   -0.000182894060
    21   -0.000000000000
    22   -0.000000000000
    23    0.000000000000
    24    0.000000000000
    25    0.000967387871
    26   -0.000000000000
    27    0.000000000000
    28   -0.000000000000
    29    0.000000000000
    30   -0.001778324468
    31   -0.000000000000
    32    0.000000000000
    33    0.000000000000
    34    0.000000000000
    35   -0.000273891445
    36    0.000000000000
    37   -0.000000000000
    38    0.000000000000
    39   -0.000246437207
    40   -0.000000000000
    41    0.000008552364
    42   -0.000017061942
    43   -0.000053055373
    44    0.000216440506
    45   -0.000666613225
    46   -0.000003958690
    47   -0.000000000000
    48   -0.000005372986
    49    0.000017476565
    50   -0.000000000000
    51    0.000025647776
    52   -0.000056375306
    53    0.000000000000
    54   -0.000067892421
    55    0.000112321762
    56   -0.000000000000
    57    0.000078735166
    58   -0.000467096411
    59    0.000000000000
    60    0.000310872795
    61    0.000044685719
    62   -0.000028321005
    63   -0.000000000000
    64   -0.000001253316
    65    0.000000000000
    66   -0.000162009987
    67    0.000056051096
    68   -0.000000000000
    69    0.000023162262
    70   -0.000000000000
    71    0.000054836769
    72    0.000006033555
    73    0.000000000000
    74   -0.000034861979
    75   -0.000000000000
    76    0.000015459362
    77   -0.000000000000
    78   -0.000008552364
    79    0.000017061942
    80    0.000053055373
    81   -0.000216440506
    82    0.000666613225
    83   -0.000003958690
    84    0.000000000000
    85    0.000005372986
    86    0.000017476565
    87    0.000000000000
    88   -0.000025647776
    89   -0.000056375306
    90   -0.000000000000
    91    0.000067892421
    92    0.000112321762
    93    0.000000000000
    94   -0.000078735166
    95   -0.000467096411
    96   -0.000000000000
    97   -0.000310872795
    98   -0.000044685719
    99   -0.000028321005
   100   -0.000000000000
   101    0.000001253316
   102   -0.000000000000
   103    0.000162009987
   104    0.000056051095
   105    0.000000000000
   106   -0.000023162262
   107   -0.000000000000
   108   -0.000054836769
   109    0.000006033555
   110    0.000000000000
   111    0.000034861979
   112   -0.000000000000
   113    0.000015459362
   114    0.000000000000
   115    0.317221343846
   116    0.443453351592
   117    0.023459024640
   118   -0.014918725836
   119    0.012561020531
   120   -0.000301377785
   121   -0.000000000000
   122   -0.000299999360
   123   -0.000486289034
   124   -0.000000000000
   125   -0.000293551488
   126    0.000349987016
   127   -0.000000000000
   128   -0.000062711596
   129    0.000035132278
   130   -0.000022753034
   131   -0.000000000000
   132   -0.000080249713
   133   -0.000000000000
   134   -0.000068026038
   135   -0.000338192614
   136    0.000000000000
   137   -0.000135258657
   138    0.000000000000
   139    0.000047546032
   140   -0.000062806024
   141    0.000000000000
   142    0.000137929816
   143    0.000000000000
   144   -0.000047327812
   145   -0.000000000000
   146    0.000164934431
   147   -0.000705149136
   148   -0.001568857195
   149   -0.000081896140
   150    0.000367755880
   151   -0.000250266508
   152    0.000164934431
   153   -0.000705149136
   154   -0.001568857195
   155   -0.000081896140
   156   -0.000367755880
   157   -0.000250266508
   158   -0.317221343597
   159   -0.443453351245
   160   -0.023459024621
   161    0.014918725825
   162   -0.012561020523
   163   -0.000301377785
   164    0.000000000000
   165    0.000299999359
   166   -0.000486289034
   167   -0.000000000000
   168    0.000293551488
   169    0.000349987017
   170   -0.000000000000
   171    0.000062711596
   172   -0.000035132278
   173   -0.000022753034
   174   -0.000000000000
   175    0.000080249713
   176    0.000000000000
   177    0.000068026038
   178   -0.000338192613
   179   -0.000000000000
   180    0.000135258657
   181   -0.000000000000
   182   -0.000047546032
   183   -0.000062806024
   184    0.000000000000
   185   -0.000137929816
   186   -0.000000000000
   187   -0.000047327812
   188   -0.000000000000
   189   -0.000164934431
   190    0.000705149136
   191    0.001568857194
   192   -0.000081896140
   193    0.000367755880
   194    0.000250266508
   195   -0.000164934431
   196    0.000705149136
   197    0.001568857194
   198   -0.000081896140
   199   -0.000367755880
   200    0.000250266508
   201    0.000101550971
   202   -0.000557456684
   203   -0.001106337715
   204   -0.000296300607
   205    0.000000000000
   206    0.000268347120
   207   -0.000101550971
   208    0.000557456684
   209    0.001106337714
   210   -0.000296300606
   211    0.000000000000
   212   -0.000268347120
Sym= a1   
Ene=  -0.14462395975184E+02
Spin= Alpha
Occup=       2.0000000000
     1   -0.000003435064
     2    0.000004913164
     3    0.000190810997
     4   -0.000777287554
     5    0.000470267681
     6    0.000526860181
     7   -0.000000000000
     8    0.000000000000
     9    0.000021459036
    10   -0.000000000000
    11    0.000000000000
    12    0.000205542495
    13    0.000000000000
    14   -0.000000000000
    15   -0.000280231396
    16   -0.000000000001
    17    0.000000000000
    18    0.000311684041
    19   -0.000008579312
    20    0.000000000000
    21    0.000000000000
    22   -0.000123186655
    23   -0.000000000000
    24    0.000116254566
    25   -0.000000000000
    26    0.000000000000
    27    0.000582141864
    28    0.000000000000
    29    0.000190838850
    30    0.000000000001
    31    0.000000000000
    32    0.000314520024
    33   -0.000000000000
    34    0.000101150153
    35    0.000000000000
    36   -0.000000000000
    37   -0.000342042736
    38   -0.000000000000
    39    0.000000000000
    40    0.000000000000
    41    0.000007704433
    42   -0.000015501795
    43   -0.000048874531
    44    0.000261850801
    45   -0.000606436914
    46   -0.000000361206
    47    0.000000000000
    48   -0.000011153340
    49    0.000001401292
    50    0.000000000000
    51    0.000052795640
    52    0.000000064264
    53   -0.000000000000
    54   -0.000155584297
    55    0.000000668798
    56    0.000000000000
    57    0.000254292101
    58   -0.000310310616
    59   -0.000000000000
    60    0.000061576283
    61    0.000040181905
    62   -0.000017507517
    63    0.000000000000
    64   -0.000007624059
    65   -0.000000000000
    66   -0.000168767504
    67    0.000099975048
    68    0.000000000000
    69   -0.000002388383
    70    0.000000000000
    71    0.000052561664
    72   -0.000015846996
    73   -0.000000000000
    74   -0.000009927749
    75    0.000000000000
    76   -0.000003946124
    77    0.000000000000
    78    0.000007704433
    79   -0.000015501795
    80   -0.000048874531
    81    0.000261850801
    82   -0.000606436915
    83    0.000000361206
    84   -0.000000000000
    85   -0.000011153340
    86   -0.000001401292
    87   -0.000000000000
    88    0.000052795640
    89   -0.000000064264
    90    0.000000000000
    91   -0.000155584297
    92   -0.000000668798
    93   -0.000000000000
    94    0.000254292101
    95    0.000310310616
    96    0.000000000000
    97    0.000061576283
    98    0.000040181905
    99    0.000017507517
   100    0.000000000000
   101   -0.000007624059
   102    0.000000000000
   103   -0.000168767505
   104   -0.000099975048
   105   -0.000000000000
   106   -0.000002388383
   107    0.000000000000
   108    0.000052561664
   109    0.000015846996
   110   -0.000000000000
   111   -0.000009927749
   112    0.000000000000
   113    0.000003946124
   114   -0.000000000000
   115    0.317217906526
   116    0.443480139001
   117    0.023229815388
   118   -0.014083925684
   119    0.009443505492
   120   -0.000352857899
   121    0.000000000000
   122   -0.000286482204
   123   -0.000049314929
   124    0.000000000000
   125   -0.000351324221
   126   -0.000927449766
   127    0.000000000000
   128   -0.000103420994
   129    0.000013716302
   130   -0.000030974927
   131    0.000000000000
   132   -0.000035536276
   133    0.000000000000
   134   -0.000029227249
   135   -0.000180076558
   136   -0.000000000000
   137   -0.000285945047
   138   -0.000000000000
   139    0.000050053822
   140   -0.000038349664
   141   -0.000000000000
   142    0.000121018038
   143   -0.000000000000
   144   -0.000018829139
   145    0.000000000000
   146    0.000071025058
   147   -0.000289299691
   148   -0.001338621087
   149    0.000004079583
   150    0.000331371945
   151   -0.000272883139
   152    0.000071025058
   153   -0.000289299691
   154   -0.001338621087
   155    0.000004079583
   156   -0.000331371945
   157   -0.000272883139
   158    0.317217906774
   159    0.443480139348
   160    0.023229815406
   161   -0.014083925696
   162    0.009443505502
   163    0.000352857899
   164   -0.000000000000
   165   -0.000286482204
   166    0.000049314929
   167    0.000000000000
   168   -0.000351324222
   169    0.000927449766
   170    0.000000000000
   171   -0.000103420994
   172    0.000013716302
   173    0.000030974927
   174    0.000000000000
   175   -0.000035536277
   176   -0.000000000000
   177   -0.000029227249
   178    0.000180076558
   179    0.000000000000
   180   -0.000285945047
   181    0.000000000000
   182    0.000050053822
   183    0.000038349664
   184   -0.000000000000
   185    0.000121018038
   186    0.000000000000
   187    0.000018829139
   188    0.000000000000
   189    0.000071025058
   190   -0.000289299691
   191   -0.001338621088
   192   -0.000004079583
   193   -0.000331371945
   194   -0.000272883139
   195    0.000071025058
   196   -0.000289299691
   197   -0.001338621088
   198   -0.000004079583
   199    0.000331371945
   200   -0.000272883139
   201    0.000142946189
   202   -0.000116705607
   203   -0.002004306784
   204   -0.000216639962
   205   -0.000000000000