[Molden Format]
[Atoms] AU
   B     1    5      0.0000000000     0.0000000000    -2.3160821371
   N     2    7     -2.3646627240     0.0000000000    -0.5404070794
   C     3    6     -4.7954225628     0.0000000000    -1.2668897049
   C     4    6     -6.3975491923     0.0000000000     0.8751910706
   C     5    6     -4.8330256829     0.0000000000     2.9926172874
   C     6    6     -2.2992581146     0.0000000000     2.0948915702
   C     7    6      0.0000000000     0.0000000000     3.3802442486
   C     8    6      2.2992581146     0.0000000000     2.0948915702
   N     9    7      2.3646627240     0.0000000000    -0.5404070794
   C    10    6      4.7954225628     0.0000000000    -1.2668897049
   C    11    6      6.3975491923     0.0000000000     0.8751910706
   C    12    6      4.8330256829     0.0000000000     2.9926172874
   F    13    9      0.0000000000     2.1551177870    -3.8104390137
   F    14    9      0.0000000000    -2.1551177870    -3.8104390137
   H    15    1     -5.3079198726     0.0000000000    -3.2609317632
   H    16    1     -8.4533900885     0.0000000000     0.8349437112
   H    17    1     -5.3911714367     0.0000000000     4.9729088861
   H    18    1      0.0000000000     0.0000000000     5.4442375264
   H    19    1      5.3079198726     0.0000000000    -3.2609317632
   H    20    1      8.4533900885     0.0000000000     0.8349437112
   H    21    1      5.3911714367     0.0000000000     4.9729088861
[GTO]
    1  0
  s      5  0
       839.3183008600        -0.0055929201
       126.2646484300        -0.0415655208
        28.6206007630        -0.1829981698
         7.8793722710        -0.4654039187
         2.4088857172        -0.4417388479
  s      1  0
         0.2510510904         1.0000000000
  s      1  0
         0.0836488661         1.0000000000
  p      3  0
         6.0332223619        -0.0356036725
         1.2499157866        -0.1989577577
         0.3387167635        -0.5085020262
  p      1  0
         0.0964156324         1.0000000000
  d      1  0
         0.5000000000         1.0000000000

    2  0
  s      5  0
      1712.8415853000        -0.0053934125
       257.6481267700        -0.0402215811
        58.4582458530        -0.1793114499
        16.1983679050        -0.4637631782
         5.0052600809        -0.4417142266
  s      1  0
         0.5873185657         1.0000000000
  s      1  0
         0.1876459225         1.0000000000
  p      3  0
        13.5714702330        -0.0400723989
         2.9257372874        -0.2180704503
         0.7992775075        -0.5129446605
  p      1  0
         0.2195434803         1.0000000000
  d      1  0
         1.0000000000         1.0000000000

    3  0
  s      5  0
      1238.4016938000         0.0054568832
       186.2900499200         0.0406384092
        42.2511763460         0.1802559389
        11.6765579320         0.4631512176
         3.5930506482         0.4408717331
  s      1  0
         0.4024514736         1.0000000000
  s      1  0
         0.1309018267         1.0000000000
  p      3  0
         9.4680970621         0.0383878717
         2.0103545142         0.2111702511
         0.5477100471         0.5132817211
  p      1  0
         0.1526861380         1.0000000000
  d      1  0
         0.8000000000         1.0000000000

    4  0
  s      5  0
      1238.4016938000         0.0054568832
       186.2900499200         0.0406384092
        42.2511763460         0.1802559389
        11.6765579320         0.4631512176
         3.5930506482         0.4408717331
  s      1  0
         0.4024514736         1.0000000000
  s      1  0
         0.1309018267         1.0000000000
  p      3  0
         9.4680970621         0.0383878717
         2.0103545142         0.2111702511
         0.5477100471         0.5132817211
  p      1  0
         0.1526861380         1.0000000000
  d      1  0
         0.8000000000         1.0000000000

    5  0
  s      5  0
      1238.4016938000         0.0054568832
       186.2900499200         0.0406384092
        42.2511763460         0.1802559389
        11.6765579320         0.4631512176
         3.5930506482         0.4408717331
  s      1  0
         0.4024514736         1.0000000000
  s      1  0
         0.1309018267         1.0000000000
  p      3  0
         9.4680970621         0.0383878717
         2.0103545142         0.2111702511
         0.5477100471         0.5132817211
  p      1  0
         0.1526861380         1.0000000000
  d      1  0
         0.8000000000         1.0000000000

    6  0
  s      5  0
      1238.4016938000         0.0054568832
       186.2900499200         0.0406384092
        42.2511763460         0.1802559389
        11.6765579320         0.4631512176
         3.5930506482         0.4408717331
  s      1  0
         0.4024514736         1.0000000000
  s      1  0
         0.1309018267         1.0000000000
  p      3  0
         9.4680970621         0.0383878717
         2.0103545142         0.2111702511
         0.5477100471         0.5132817211
  p      1  0
         0.1526861380         1.0000000000
  d      1  0
         0.8000000000         1.0000000000

    7  0
  s      5  0
      1238.4016938000         0.0054568832
       186.2900499200         0.0406384092
        42.2511763460         0.1802559389
        11.6765579320         0.4631512176
         3.5930506482         0.4408717331
  s      1  0
         0.4024514736         1.0000000000
  s      1  0
         0.1309018267         1.0000000000
  p      3  0
         9.4680970621         0.0383878717
         2.0103545142         0.2111702511
         0.5477100471         0.5132817211
  p      1  0
         0.1526861380         1.0000000000
  d      1  0
         0.8000000000         1.0000000000

    8  0
  s      5  0
      1238.4016938000         0.0054568832
       186.2900499200         0.0406384092
        42.2511763460         0.1802559389
        11.6765579320         0.4631512176
         3.5930506482         0.4408717331
  s      1  0
         0.4024514736         1.0000000000
  s      1  0
         0.1309018267         1.0000000000
  p      3  0
         9.4680970621         0.0383878717
         2.0103545142         0.2111702511
         0.5477100471         0.5132817211
  p      1  0
         0.1526861380         1.0000000000
  d      1  0
         0.8000000000         1.0000000000

    9  0
  s      5  0
      1712.8415853000        -0.0053934125
       257.6481267700        -0.0402215811
        58.4582458530        -0.1793114499
        16.1983679050        -0.4637631782
         5.0052600809        -0.4417142266
  s      1  0
         0.5873185657         1.0000000000
  s      1  0
         0.1876459225         1.0000000000
  p      3  0
        13.5714702330        -0.0400723989
         2.9257372874        -0.2180704503
         0.7992775075        -0.5129446605
  p      1  0
         0.2195434803         1.0000000000
  d      1  0
         1.0000000000         1.0000000000

   10  0
  s      5  0
      1238.4016938000         0.0054568832
       186.2900499200         0.0406384092
        42.2511763460         0.1802559389
        11.6765579320         0.4631512176
         3.5930506482         0.4408717331
  s      1  0
         0.4024514736         1.0000000000
  s      1  0
         0.1309018267         1.0000000000
  p      3  0
         9.4680970621         0.0383878717
         2.0103545142         0.2111702511
         0.5477100471         0.5132817211
  p      1  0
         0.1526861380         1.0000000000
  d      1  0
         0.8000000000         1.0000000000

   11  0
  s      5  0
      1238.4016938000         0.0054568832
       186.2900499200         0.0406384092
        42.2511763460         0.1802559389
        11.6765579320         0.4631512176
         3.5930506482         0.4408717331
  s      1  0
         0.4024514736         1.0000000000
  s      1  0
         0.1309018267         1.0000000000
  p      3  0
         9.4680970621         0.0383878717
         2.0103545142         0.2111702511
         0.5477100471         0.5132817211
  p      1  0
         0.1526861380         1.0000000000
  d      1  0
         0.8000000000         1.0000000000

   12  0
  s      5  0
      1238.4016938000         0.0054568832
       186.2900499200         0.0406384092
        42.2511763460         0.1802559389
        11.6765579320         0.4631512176
         3.5930506482         0.4408717331
  s      1  0
         0.4024514736         1.0000000000
  s      1  0
         0.1309018267         1.0000000000
  p      3  0
         9.4680970621         0.0383878717
         2.0103545142         0.2111702511
         0.5477100471         0.5132817211
  p      1  0
         0.1526861380         1.0000000000
  d      1  0
         0.8000000000         1.0000000000

   13  0
  s      5  0
      2894.8325990000        -0.0053408256
       435.4193912000        -0.0399042589
        98.8433288660        -0.1791276804
        27.4851980010        -0.4675809083
         8.5405498171        -0.4465313102
  s      1  0
         1.0654578038         1.0000000000
  s      1  0
         0.3324734675         1.0000000000
  p      3  0
        22.6966339240        -0.0452128744
         4.9872339257        -0.2375431707
         1.3491613954        -0.5128735359
  p      1  0
         0.3482988198         1.0000000000
  d      1  0
         1.4000000000         1.0000000000

   14  0
  s      5  0
      2894.8325990000        -0.0053408256
       435.4193912000        -0.0399042589
        98.8433288660        -0.1791276804
        27.4851980010        -0.4675809083
         8.5405498171        -0.4465313102
  s      1  0
         1.0654578038         1.0000000000
  s      1  0
         0.3324734675         1.0000000000
  p      3  0
        22.6966339240        -0.0452128744
         4.9872339257        -0.2375431707
         1.3491613954        -0.5128735359
  p      1  0
         0.3482988198         1.0000000000
  d      1  0
         1.4000000000         1.0000000000

   15  0
  s      3  0
        13.0107010000         0.0196821580
         1.9622572000         0.1379652400
         0.4445379600         0.4783193500
  s      1  0
         0.1219496200         1.0000000000
  p      1  0
         0.8000000000         1.0000000000

   16  0
  s      3  0
        13.0107010000         0.0196821580
         1.9622572000         0.1379652400
         0.4445379600         0.4783193500
  s      1  0
         0.1219496200         1.0000000000
  p      1  0
         0.8000000000         1.0000000000

   17  0
  s      3  0
        13.0107010000         0.0196821580
         1.9622572000         0.1379652400
         0.4445379600         0.4783193500
  s      1  0
         0.1219496200         1.0000000000
  p      1  0
         0.8000000000         1.0000000000

   18  0
  s      3  0
        13.0107010000         0.0196821580
         1.9622572000         0.1379652400
         0.4445379600         0.4783193500
  s      1  0
         0.1219496200         1.0000000000
  p      1  0
         0.8000000000         1.0000000000

   19  0
  s      3  0
        13.0107010000         0.0196821580
         1.9622572000         0.1379652400
         0.4445379600         0.4783193500
  s      1  0
         0.1219496200         1.0000000000
  p      1  0
         0.8000000000         1.0000000000

   20  0
  s      3  0
        13.0107010000         0.0196821580
         1.9622572000         0.1379652400
         0.4445379600         0.4783193500
  s      1  0
         0.1219496200         1.0000000000
  p      1  0
         0.8000000000         1.0000000000

   21  0
  s      3  0
        13.0107010000         0.0196821580
         1.9622572000         0.1379652400
         0.4445379600         0.4783193500
  s      1  0
         0.1219496200         1.0000000000
  p      1  0
         0.8000000000         1.0000000000

[5D]
[9G]
[MO]
Sym= a1   
Ene=  -0.24637498365622E+02
Spin= Alpha
Occup=       2.0000000000
     1   -0.000297431838
     2   -0.004548311616
     3   -0.014274140576
     4    0.000000000000
     5    0.000000000000
     6   -0.002062750898
     7   -0.000000000000
     8   -0.000000000000
     9    0.002310829315
    10   -0.000246185191
    11    0.000000000000
    12   -0.000000000000
    13    0.000184129453
    14   -0.000000000000
    15    0.000033073420
    16    0.000071952111
    17   -0.001268236431
    18   -0.000022484791
    19    0.000000000000
    20    0.000152715129
    21    0.002336865139
    22    0.000000000000
    23   -0.001201119878
    24    0.000080590868
    25   -0.000244938802
    26   -0.000000000000
    27   -0.000002319715
    28    0.000000000000
    29   -0.000008938927
    30   -0.000043564894
    31   -0.000126845715
    32   -0.000058973648
    33   -0.000000000000
    34    0.000196916505
    35    0.003731789842
    36    0.000000000000
    37   -0.000930029598
    38   -0.000052093300
    39    0.000113137085
    40   -0.000000000000
    41    0.000145213043
    42   -0.000000000000
    43   -0.000025184808
    44    0.000180433221
    45    0.003311405159
    46    0.000058156563
    47    0.000000000000
    48    0.000010706537
    49    0.000556361690
    50    0.000000000000
    51   -0.001504744997
    52    0.000018618346
    53   -0.000009296642
    54    0.000000000000
    55    0.000058167750
    56   -0.000000000000
    57   -0.000025436855
    58    0.000382800264
    59   -0.002179807999
    60    0.000044833698
    61    0.000000000000
    62   -0.000059079023
    63   -0.001115313800
    64   -0.000000000000
    65    0.001475513716
    66   -0.000004823187
    67    0.000004905490
    68    0.000000000000
    69   -0.000012120347
    70   -0.000000000000
    71    0.000030502310
    72   -0.000404664524
    73    0.006072147541
    74   -0.000101233123
    75   -0.000000000000
    76    0.000159166904
    77    0.000064761843
    78    0.000000000000
    79   -0.001463364163
    80    0.000028322571
    81    0.000112782479
    82    0.000000000000
    83    0.000087901923
    84    0.000000000000
    85    0.000006814526
    86    0.000260052718
    87   -0.003298876674
    88   -0.000000000000
    89   -0.000000000000
    90   -0.000032134504
    91    0.000000000000
    92   -0.000000000000
    93    0.002321557442
    94   -0.000052248952
    95    0.000000000000
    96    0.000000000000
    97   -0.000066449794
    98    0.000000000000
    99    0.000030502310
   100   -0.000404664524
   101    0.006072147541
   102    0.000101233123
   103   -0.000000000000
   104    0.000159166904
   105   -0.000064761843
   106    0.000000000000
   107   -0.001463364163
   108    0.000028322571
   109   -0.000112782479
   110    0.000000000000
   111    0.000087901923
   112   -0.000000000000
   113    0.000033073420
   114    0.000071952111
   115   -0.001268236431
   116    0.000022484791
   117    0.000000000000
   118    0.000152715129
   119   -0.002336865139
   120    0.000000000000
   121   -0.001201119878
   122    0.000080590868
   123    0.000244938802
   124   -0.000000000000
   125   -0.000002319715
   126   -0.000000000000
   127   -0.000008938927
   128   -0.000043564894
   129   -0.000126845715
   130    0.000058973648
   131   -0.000000000000
   132    0.000196916505
   133   -0.003731789842
   134    0.000000000000
   135   -0.000930029598
   136   -0.000052093300
   137   -0.000113137085
   138   -0.000000000000
   139    0.000145213043
   140    0.000000000000
   141   -0.000025184808
   142    0.000180433221
   143    0.003311405159
   144   -0.000058156563
   145    0.000000000000
   146    0.000010706537
   147   -0.000556361690
   148    0.000000000000
   149   -0.001504744997
   150    0.000018618346
   151    0.000009296642
   152    0.000000000000
   153    0.000058167750
   154    0.000000000000
   155   -0.000025436855
   156    0.000382800264
   157   -0.002179807999
   158   -0.000044833698
   159    0.000000000000
   160   -0.000059079023
   161    0.001115313800
   162   -0.000000000000
   163    0.001475513716
   164   -0.000004823187
   165   -0.000004905490
   166    0.000000000000
   167   -0.000012120347
   168    0.000000000000
   169    0.699128230348
   170   -0.028724026899
   171    0.018430893050
   172    0.000000000000
   173   -0.000707281623
   174    0.000420810370
   175    0.000000000000
   176   -0.003017468737
   177    0.001414058834
   178   -0.000078790086
   179   -0.000000000000
   180   -0.000238125422
   181   -0.000249479491
   182    0.000000000000
   183    0.699128230248
   184   -0.028724026895
   185    0.018430893048
   186    0.000000000000
   187    0.000707281623
   188    0.000420810370
   189    0.000000000000
   190    0.003017468737
   191    0.001414058833
   192   -0.000078790086
   193    0.000000000000
   194    0.000238125422
   195   -0.000249479491
   196    0.000000000000
   197   -0.000326213303
   198    0.001551651609
   199   -0.000031951133
   200    0.000000000000
   201    0.000122575013
   202   -0.000092076780
   203   -0.000267850987
   204   -0.000034265049
   205   -0.000000000000
   206    0.000066542148
   207   -0.000190866540
   208   -0.000343500329
   209    0.000051511247
   210    0.000000000000
   211    0.000014976782
   212   -0.000222097157
   213   -0.000424166851
   214   -0.000000000000
   215    0.000000000000
   216   -0.000029074787
   217   -0.000326213303
   218    0.001551651609
   219    0.000031951133
   220    0.000000000000
   221    0.000122575013
   222   -0.000092076780
   223   -0.000267850987
   224    0.000034265049
   225   -0.000000000000
   226    0.000066542148
   227   -0.000190866540
   228   -0.000343500329
   229   -0.000051511247
   230    0.000000000000
   231    0.000014976782
Sym= b2   
Ene=  -0.24637419404783E+02
Spin= Alpha
Occup=       2.0000000000
     1    0.000000000000
     2    0.000000000000
     3    0.000000000001
     4    0.000000000000
     5    0.002288178670
     6    0.000000000000
     7   -0.000000000000
     8   -0.006490934750
     9   -0.000000000000
    10    0.000000000000
    11   -0.000000000000
    12   -0.000112438469
    13   -0.000000000000
    14   -0.000000000000
    15   -0.000000000000
    16   -0.000000000000
    17    0.000000000000
    18    0.000000000000
    19    0.000131997075
    20   -0.000000000000
    21   -0.000000000000
    22    0.001350507997
    23    0.000000000000
    24   -0.000000000000
    25    0.000000000000
    26   -0.000092130781
    27    0.000000000000
    28    0.000209490926
    29    0.000000000000
    30    0.000000000000
    31    0.000000000000
    32    0.000000000000
    33   -0.000119922752
    34   -0.000000000000
    35   -0.000000000000
    36    0.000176789561
    37    0.000000000000
    38    0.000000000000
    39   -0.000000000000
    40   -0.000077948112
    41   -0.000000000000
    42   -0.000017641515
    43    0.000000000000
    44   -0.000000000000
    45   -0.000000000000
    46   -0.000000000000
    47    0.000002134193
    48   -0.000000000000
    49   -0.000000000000
    50    0.000027725791
    51    0.000000000000
    52   -0.000000000000
    53    0.000000000000
    54    0.000028482420
    55   -0.000000000000
    56   -0.000023998478
    57    0.000000000000
    58   -0.000000000000
    59    0.000000000000
    60   -0.000000000000
    61    0.000043074913
    62    0.000000000000
    63    0.000000000000
    64   -0.000466661388
    65   -0.000000000000
    66    0.000000000000
    67   -0.000000000000
    68    0.000035588034
    69    0.000000000000
    70   -0.000062142301
    71   -0.000000000000
    72    0.000000000000
    73   -0.000000000000
    74    0.000000000000
    75   -0.000329460750
    76   -0.000000000000
    77   -0.000000000000
    78    0.000927988351
    79    0.000000000000
    80   -0.000000000000
    81   -0.000000000000
    82    0.000080081142
    83   -0.000000000000
    84    0.000039881102
    85   -0.000000000000
    86   -0.000000000000
    87    0.000000000000
    88   -0.000000000000
    89   -0.000091126805
    90    0.000000000000
    91   -0.000000000000
    92   -0.000310778492
    93   -0.000000000000
    94    0.000000000000
    95    0.000000000000
    96    0.000021123272
    97    0.000000000000
    98    0.000000000000
    99   -0.000000000000
   100    0.000000000000
   101   -0.000000000000
   102   -0.000000000000
   103   -0.000329460750
   104   -0.000000000000
   105    0.000000000000
   106    0.000927988351
   107    0.000000000000
   108   -0.000000000000
   109    0.000000000000
   110    0.000080081142
   111   -0.000000000000
   112   -0.000039881102
   113   -0.000000000000
   114   -0.000000000000
   115    0.000000000000
   116   -0.000000000000
   117    0.000131997075
   118   -0.000000000000
   119    0.000000000000
   120    0.001350507997
   121    0.000000000000
   122   -0.000000000000
   123   -0.000000000000
   124   -0.000092130781
   125    0.000000000000
   126   -0.000209490926
   127    0.000000000000
   128    0.000000000000
   129    0.000000000000
   130   -0.000000000000
   131   -0.000119922752
   132   -0.000000000000
   133    0.000000000000
   134    0.000176789561
   135    0.000000000000
   136    0.000000000000
   137    0.000000000000
   138   -0.000077948112
   139   -0.000000000000
   140    0.000017641515
   141    0.000000000000
   142   -0.000000000000
   143   -0.000000000000
   144    0.000000000000
   145    0.000002134193
   146   -0.000000000000
   147    0.000000000000
   148    0.000027725791
   149    0.000000000000
   150   -0.000000000000
   151   -0.000000000000
   152    0.000028482420
   153   -0.000000000000
   154    0.000023998478
   155    0.000000000000
   156   -0.000000000000
   157    0.000000000000
   158    0.000000000000
   159    0.000043074913
   160    0.000000000000
   161   -0.000000000000
   162   -0.000466661388
   163   -0.000000000000
   164    0.000000000000
   165    0.000000000000
   166    0.000035588034
   167    0.000000000000
   168    0.000062142301
   169    0.699221377219
   170   -0.027633146286
   171    0.014782641234
   172    0.000000000000
   173   -0.000631255153
   174    0.000620127362
   175    0.000000000000
   176   -0.001256976566
   177    0.001870812225
   178    0.000080864712
   179   -0.000000000000
   180   -0.000148447502
   181   -0.000103794612
   182    0.000000000000
   183   -0.699221377320
   184    0.027633146290
   185   -0.014782641237
   186    0.000000000000
   187   -0.000631255153
   188   -0.000620127362
   189    0.000000000000
   190   -0.001256976567
   191   -0.001870812225
   192   -0.000080864712
   193   -0.000000000000
   194   -0.000148447502
   195    0.000103794612
   196   -0.000000000000
   197    0.000000000000
   198   -0.000000000000
   199    0.000000000000
   200    0.000041052874
   201   -0.000000000000
   202    0.000000000000
   203    0.000000000000
   204    0.000000000000
   205   -0.000004021269
   206   -0.000000000000
   207    0.000000000000
   208    0.000000000000
   209   -0.000000000000
   210    0.000054621556
   211   -0.000000000000
   212    0.000000000000
   213    0.000000000000
   214    0.000000000000
   215    0.000012289204
   216    0.000000000000
   217    0.000000000000
   218   -0.000000000000
   219   -0.000000000000
   220    0.000041052874
   221   -0.000000000000
   222    0.000000000000
   223    0.000000000000
   224   -0.000000000000
   225   -0.000004021269
   226   -0.000000000000
   227    0.000000000000
   228    0.000000000000
   229    0.000000000000
   230    0.000054621556
   231   -0.000000000000
Sym= b1   
Ene=  -0.14366940216702E+02
Spin= Alpha
Occup=       2.0000000000
     1   -0.000000000000
     2   -0.000000000000
     3   -0.000000000000
     4    0.000873878934
     5    0.000000000000
     6   -0.000000000000
     7    0.003707356385
     8   -0.000000000000
     9    0.000000000000
    10   -0.000000000000
    11   -0.001926402874
    12   -0.000000000000
    13    0.000000000000
    14    0.000000000000
    15    0.698748408993
    16   -0.034060356793
    17    0.038646582951
    18   -0.000716226935
    19    0.000000000000
    20    0.000718492007
    21   -0.002940755261
    22    0.000000000000
    23    0.006913256522
    24    0.000106957494
    25   -0.000019402954
    26   -0.000000000000
    27   -0.000508308245
    28    0.000000000000
    29   -0.000230144430
    30    0.000017911108
    31   -0.012563205240
    32    0.000901635953
    33   -0.000000000000
    34    0.000267874403
    35   -0.001503148988
    36    0.000000000000
    37   -0.004782857597
    38   -0.000728445332
    39    0.000700921321
    40   -0.000000000000
    41    0.001149530413
    42   -0.000000000000
    43    0.000034043086
    44   -0.000559876317
    45    0.005210259931
    46   -0.000002898870
    47    0.000000000000
    48   -0.000224158596
    49    0.003563331249
    50    0.000000000000
    51   -0.002440404388
    52    0.000132842123
    53   -0.000082605070
    54    0.000000000000
    55   -0.000075199213
    56   -0.000000000000
    57    0.000035244942
    58   -0.000162138082
    59    0.000307241349
    60    0.000192833178
    61    0.000000000000
    62   -0.000011835765
    63   -0.001221732115
    64   -0.000000000000
    65   -0.004169399565
    66   -0.000176377127
    67   -0.000159154208
    68    0.000000000000
    69   -0.000035766344
    70   -0.000000000000
    71   -0.000139507964
    72   -0.000309030247
    73   -0.003249914444
    74   -0.000105993415
    75   -0.000000000000
    76   -0.000720189814
    77    0.006375929105
    78    0.000000000000
    79    0.017186045700
    80    0.001000764681
    81    0.000128807133
    82    0.000000000000
    83   -0.000163173324
    84    0.000000000000
    85    0.000000000000
    86    0.000000000000
    87   -0.000000000000
    88   -0.000242326332
    89   -0.000000000000
    90   -0.000000000000
    91    0.014430337435
    92   -0.000000000000
    93    0.000000000000
    94   -0.000000000000
    95    0.000328119606
    96    0.000000000000
    97   -0.000000000000
    98   -0.000000000000
    99    0.000139507964
   100    0.000309030247
   101    0.003249914444
   102   -0.000105993415
   103   -0.000000000000
   104    0.000720189814
   105    0.006375929105
   106    0.000000000000
   107   -0.017186045700
   108   -0.001000764681
   109    0.000128807133
   110    0.000000000000
   111    0.000163173324
   112   -0.000000000000
   113   -0.698748408993
   114    0.034060356793
   115   -0.038646582951
   116   -0.000716226935
   117    0.000000000000
   118   -0.000718492007
   119   -0.002940755261
   120    0.000000000000
   121   -0.006913256522
   122   -0.000106957494
   123   -0.000019402954
   124   -0.000000000000
   125    0.000508308245
   126   -0.000000000000
   127    0.000230144430
   128   -0.000017911108
   129    0.012563205240
   130    0.000901635953
   131   -0.000000000000
   132   -0.000267874403
   133   -0.001503148988
   134    0.000000000000
   135    0.004782857597
   136    0.000728445332
   137    0.000700921321
   138   -0.000000000000
   139   -0.001149530413
   140    0.000000000000
   141   -0.000034043086
   142    0.000559876317
   143   -0.005210259931
   144   -0.000002898870
   145    0.000000000000
   146    0.000224158596
   147    0.003563331249
   148    0.000000000000
   149    0.002440404388
   150   -0.000132842123
   151   -0.000082605070
   152    0.000000000000
   153    0.000075199213
   154    0.000000000000
   155   -0.000035244942
   156    0.000162138082
   157   -0.000307241349
   158    0.000192833178
   159    0.000000000000
   160    0.000011835765
   161   -0.001221732115
   162   -0.000000000000
   163    0.004169399565
   164    0.000176377127
   165   -0.000159154208
   166    0.000000000000
   167    0.000035766344
   168    0.000000000000
   169    0.000000000000
   170   -0.000000000000
   171    0.000000000000
   172    0.000020083946
   173   -0.000000000000
   174    0.000000000000
   175   -0.000259921082
   176   -0.000000000000
   177    0.000000000000
   178    0.000000000000
   179    0.000122491775
   180   -0.000000000000
   181   -0.000000000000
   182    0.000109427368
   183   -0.000000000000
   184    0.000000000000
   185   -0.000000000000
   186    0.000020083946
   187   -0.000000000000
   188   -0.000000000000
   189   -0.000259921082
   190   -0.000000000000
   191   -0.000000000000
   192   -0.000000000000
   193    0.000122491775
   194   -0.000000000000
   195    0.000000000000
   196   -0.000109427368
   197   -0.000167167418
   198    0.000762637570
   199    0.000186663786
   200    0.000000000000
   201    0.000117041435
   202    0.000411873395
   203    0.000515506130
   204    0.000043136343
   205   -0.000000000000
   206    0.000123595579
   207    0.000532457312
   208    0.001416841878
   209    0.000033872221
   210    0.000000000000
   211   -0.000049788406
   212   -0.000000000000
   213   -0.000000000000
   214   -0.000417967763
   215    0.000000000000
   216   -0.000000000000
   217    0.000167167418
   218   -0.000762637570
   219    0.000186663786
   220    0.000000000000
   221   -0.000117041435
   222   -0.000411873395
   223   -0.000515506130
   224    0.000043136343
   225   -0.000000000000
   226   -0.000123595579
   227   -0.000532457312
   228   -0.001416841878
   229    0.000033872221
   230    0.000000000000
   231    0.000049788406
Sym= a1   
Ene=  -0.14366922291798E+02
Spin= Alpha
Occup=       2.0000000000
     1    0.000092057138
     2   -0.002882440681
     3   -0.008076128778
     4   -0.000000000000
     5   -0.000000000000
     6    0.000015568536
     7   -0.000000000000
     8    0.000000000000
     9   -0.003946248833
    10    0.000320104054
    11    0.000000000000
    12    0.000000000000
    13    0.001628112772
    14   -0.000000000000
    15    0.698790826053
    16   -0.033576620329
    17    0.034899548720
    18   -0.000871218884
    19   -0.000000000000