 argument  1 = BODIPY30.nw
                                         
                                         


             Northwest Computational Chemistry Package (NWChem) 7.0.2
             --------------------------------------------------------


                    Environmental Molecular Sciences Laboratory
                       Pacific Northwest National Laboratory
                                Richland, WA 99352

                              Copyright (c) 1994-2020
                       Pacific Northwest National Laboratory
                            Battelle Memorial Institute

             NWChem is an open-source computational chemistry package
                        distributed under the terms of the
                      Educational Community License (ECL) 2.0
             A copy of the license is included with this distribution
                              in the LICENSE.TXT file

                                  ACKNOWLEDGMENT
                                  --------------

            This software and its documentation were developed at the
            EMSL at Pacific Northwest National Laboratory, a multiprogram
            national laboratory, operated for the U.S. Department of Energy
            by Battelle under Contract Number DE-AC05-76RL01830. Support
            for this work was provided by the Department of Energy Office
            of Biological and Environmental Research, Office of Basic
            Energy Sciences, and the Office of Advanced Scientific Computing.


           Job information
           ---------------

    hostname        = taamangtchu-Aspire-A515-45
    program         = nwchem
    date            = Sun Jun 30 14:35:31 2024

    compiled        = Sat_Apr_09_17:12:10_2022
    source          = /build/nwchem-f1f4gx/nwchem-7.0.2/build-openmpi
    nwchem branch   = 7.0.2
    nwchem revision = N/A
    ga revision     = 5.8.1
    use scalapack   = T
    input           = BODIPY30.nw
    prefix          = BODIPY.
    data base       = ./BODIPY.db
    status          = startup
    nproc           =        1
    time left       =     -1s



           Memory information
           ------------------

    heap     =   13107196 doubles =    100.0 Mbytes
    stack    =   13107201 doubles =    100.0 Mbytes
    global   =   26214400 doubles =    200.0 Mbytes (distinct from heap & stack)
    total    =   52428797 doubles =    400.0 Mbytes
    verify   = yes
    hardfail = no 


           Directory information
           ---------------------

  0 permanent = .
  0 scratch   = .




                                NWChem Input Module
                                -------------------


                         OLED TADF Properties Calculation
                         --------------------------------

 Scaling coordinates for geometry "geometry" by  1.889725989
 (inverse scale =  0.529177249)

 C2V symmetry detected

          ------
          auto-z
          ------
  no constraints, skipping    0.0000000000000000     
  no constraints, skipping    0.0000000000000000     


                             Geometry "geometry" -> ""
                             -------------------------

 Output coordinates in angstroms (scale by  1.889725989 to convert to a.u.)

  No.       Tag          Charge          X              Y              Z
 ---- ---------------- ---------- -------------- -------------- --------------
    1 B                    5.0000     0.00000000     0.00000000    -1.20497613
    2 N                    7.0000    -1.24626844     0.00000000    -0.28286786
    3 C                    6.0000    -2.51744577     0.00000000    -0.66111573
    4 C                    6.0000    -3.35664520     0.00000000     0.46264423
    5 C                    6.0000    -2.54025760     0.00000000     1.57003212
    6 C                    6.0000    -1.20534094     0.00000000     1.09629644
    7 C                    6.0000     0.00000000     0.00000000     1.77905966
    8 C                    6.0000     1.20534094     0.00000000     1.09629644
    9 N                    7.0000     1.24626844     0.00000000    -0.28286786
   10 C                    6.0000     2.51744577     0.00000000    -0.66111573
   11 C                    6.0000     3.35664520     0.00000000     0.46264423
   12 C                    6.0000     2.54025760     0.00000000     1.57003212
   13 F                    9.0000     0.00000000     1.12949751    -1.99151791
   14 F                    9.0000     0.00000000    -1.12949751    -1.99151791
   15 H                    1.0000    -2.78195252     0.00000000    -1.70126847
   16 H                    1.0000    -4.42834727     0.00000000     0.44151755
   17 H                    1.0000    -2.83067448     0.00000000     2.60227169
   18 H                    1.0000     0.00000000     0.00000000     2.85866882
   19 H                    1.0000     2.78195252     0.00000000    -1.70126847
   20 H                    1.0000     4.42834727     0.00000000     0.44151755
   21 H                    1.0000     2.83067448     0.00000000     2.60227169

      Atomic Mass 
      ----------- 

      B                 11.009310
      N                 14.003070
      C                 12.000000
      F                 18.998400
      H                  1.007825


 Effective nuclear repulsion energy (a.u.)     866.7103892197

            Nuclear Dipole moment (a.u.) 
            ----------------------------
        X                 Y               Z
 ---------------- ---------------- ----------------
    -0.0000000000     0.0000000000    -0.0000000000

      Symmetry information
      --------------------

 Group name             C2v       
 Group number             16
 Group order               4
 No. of unique centers    12

      Symmetry unique atoms

     1    2    3    4    5    6    7   13   15   16   17   18



                                Z-matrix (autoz)
                                -------- 

 Units are Angstrom for bonds and degrees for angles

      Type          Name      I     J     K     L     M      Value
      ----------- --------  ----- ----- ----- ----- ----- ----------
    1 Stretch                  1     2                       1.55031
    2 Stretch                  1     9                       1.55031
    3 Stretch                  1    13                       1.37638
    4 Stretch                  1    14                       1.37638
    5 Stretch                  2     3                       1.32626
    6 Stretch                  2     6                       1.37977
    7 Stretch                  3     4                       1.40253
    8 Stretch                  3    15                       1.07326
    9 Stretch                  4     5                       1.37579
   10 Stretch                  4    16                       1.07191
   11 Stretch                  5     6                       1.41648
   12 Stretch                  5    17                       1.07232
   13 Stretch                  6     7                       1.38528
   14 Stretch                  7     8                       1.38528
   15 Stretch                  7    18                       1.07961
   16 Stretch                  8     9                       1.37977
   17 Stretch                  8    12                       1.41648
   18 Stretch                  9    10                       1.32626
   19 Stretch                 10    11                       1.40253
   20 Stretch                 10    19                       1.07326
   21 Stretch                 11    12                       1.37579
   22 Stretch                 11    20                       1.07191
   23 Stretch                 12    21                       1.07232
   24 Bend                     1     2     3               126.93168
   25 Bend                     1     2     6               124.79778
   26 Bend                     1     9     8               124.79778
   27 Bend                     1     9    10               126.93168
   28 Bend                     2     1     9               107.00486
   29 Bend                     2     1    13               109.87059
   30 Bend                     2     1    14               109.87059
   31 Bend                     2     3     4               110.18082
   32 Bend                     2     3    15               120.83842
   33 Bend                     2     6     5               107.83899
   34 Bend                     2     6     7               121.22909
   35 Bend                     3     2     6               108.27054
   36 Bend                     3     4     5               106.85008
   37 Bend                     3     4    16               125.62224
   38 Bend                     4     3    15               128.98075
   39 Bend                     4     5     6               106.85958
   40 Bend                     4     5    17               127.88789
   41 Bend                     5     4    16               127.52769
   42 Bend                     5     6     7               130.93192
   43 Bend                     6     5    17               125.25253
   44 Bend                     6     7     8               120.94139
   45 Bend                     6     7    18               119.52931
   46 Bend                     7     8     9               121.22909
   47 Bend                     7     8    12               130.93192
   48 Bend                     8     7    18               119.52931
   49 Bend                     8     9    10               108.27054
   50 Bend                     8    12    11               106.85958
   51 Bend                     8    12    21               125.25253
   52 Bend                     9     1    13               109.87059
   53 Bend                     9     1    14               109.87059
   54 Bend                     9     8    12               107.83899
   55 Bend                     9    10    11               110.18082
   56 Bend                     9    10    19               120.83842
   57 Bend                    10    11    12               106.85008
   58 Bend                    10    11    20               125.62224
   59 Bend                    11    10    19               128.98075
   60 Bend                    11    12    21               127.88789
   61 Bend                    12    11    20               127.52769
   62 Bend                    13     1    14               110.29605
   63 Torsion                  1     2     3     4         180.00000
   64 Torsion                  1     2     3    15           0.00000
   65 Torsion                  1     2     6     5         180.00000
   66 Torsion                  1     2     6     7           0.00000
   67 Torsion                  1     9     8     7           0.00000
   68 Torsion                  1     9     8    12         180.00000
   69 Torsion                  1     9    10    11         180.00000
   70 Torsion                  1     9    10    19           0.00000
   71 Torsion                  2     1     9     8           0.00000
   72 Torsion                  2     1     9    10         180.00000
   73 Torsion                  2     3     4     5           0.00000
   74 Torsion                  2     3     4    16         180.00000
   75 Torsion                  2     6     5     4          -0.00000
   76 Torsion                  2     6     5    17         180.00000
   77 Torsion                  2     6     7     8           0.00000
   78 Torsion                  2     6     7    18         180.00000
   79 Torsion                  3     2     1     9         180.00000
   80 Torsion                  3     2     1    13          60.76012
   81 Torsion                  3     2     1    14         -60.76012
   82 Torsion                  3     2     6     5           0.00000
   83 Torsion                  3     2     6     7         180.00000
   84 Torsion                  3     4     5     6           0.00000
   85 Torsion                  3     4     5    17         180.00000
   86 Torsion                  4     3     2     6           0.00000
   87 Torsion                  4     5     6     7         180.00000
   88 Torsion                  5     4     3    15         180.00000
   89 Torsion                  5     6     7     8         180.00000
   90 Torsion                  5     6     7    18           0.00000
   91 Torsion                  6     2     1     9          -0.00000
   92 Torsion                  6     2     1    13        -119.23988
   93 Torsion                  6     2     1    14         119.23988
   94 Torsion                  6     2     3    15         180.00000
   95 Torsion                  6     5     4    16         180.00000
   96 Torsion                  6     7     8     9           0.00000
   97 Torsion                  6     7     8    12         180.00000
   98 Torsion                  7     6     5    17           0.00000
   99 Torsion                  7     8     9    10         180.00000
  100 Torsion                  7     8    12    11         180.00000
  101 Torsion                  7     8    12    21           0.00000
  102 Torsion                  8     9     1    13         119.23988
  103 Torsion                  8     9     1    14        -119.23988
  104 Torsion                  8     9    10    11           0.00000
  105 Torsion                  8     9    10    19         180.00000
  106 Torsion                  8    12    11    10           0.00000
  107 Torsion                  8    12    11    20         180.00000
  108 Torsion                  9     8     7    18         180.00000
  109 Torsion                  9     8    12    11           0.00000
  110 Torsion                  9     8    12    21         180.00000
  111 Torsion                  9    10    11    12           0.00000
  112 Torsion                  9    10    11    20         180.00000
  113 Torsion                 10     9     1    13         -60.76012
  114 Torsion                 10     9     1    14          60.76012
  115 Torsion                 10     9     8    12           0.00000
  116 Torsion                 10    11    12    21         180.00000
  117 Torsion                 12     8     7    18           0.00000
  118 Torsion                 12    11    10    19         180.00000
  119 Torsion                 15     3     4    16          -0.00000
  120 Torsion                 16     4     5    17           0.00000
  121 Torsion                 19    10    11    20           0.00000
  122 Torsion                 20    11    12    21           0.00000


            XYZ format geometry
            -------------------
    21
 geometry
 B                     0.00000000     0.00000000    -1.20497613
 N                    -1.24626844     0.00000000    -0.28286786
 C                    -2.51744577     0.00000000    -0.66111573
 C                    -3.35664520     0.00000000     0.46264423
 C                    -2.54025760     0.00000000     1.57003212
 C                    -1.20534094     0.00000000     1.09629644
 C                     0.00000000     0.00000000     1.77905966
 C                     1.20534094     0.00000000     1.09629644
 N                     1.24626844     0.00000000    -0.28286786
 C                     2.51744577     0.00000000    -0.66111573
 C                     3.35664520     0.00000000     0.46264423
 C                     2.54025760     0.00000000     1.57003212
 F                     0.00000000     1.12949751    -1.99151791
 F                     0.00000000    -1.12949751    -1.99151791
 H                    -2.78195252     0.00000000    -1.70126847
 H                    -4.42834727     0.00000000     0.44151755
 H                    -2.83067448     0.00000000     2.60227169
 H                     0.00000000     0.00000000     2.85866882
 H                     2.78195252     0.00000000    -1.70126847
 H                     4.42834727     0.00000000     0.44151755
 H                     2.83067448     0.00000000     2.60227169

 ==============================================================================
                                internuclear distances
 ------------------------------------------------------------------------------
       center one      |      center two      | atomic units |  angstroms
 ------------------------------------------------------------------------------
    2 N                |   1 B                |     2.92967  |     1.55031
    3 C                |   2 N                |     2.50627  |     1.32626
    4 C                |   3 C                |     2.65040  |     1.40253
    5 C                |   4 C                |     2.59987  |     1.37579
    6 C                |   2 N                |     2.60739  |     1.37977
    6 C                |   5 C                |     2.67677  |     1.41648
    7 C                |   6 C                |     2.61781  |     1.38528
    8 C                |   7 C                |     2.61781  |     1.38528
    9 N                |   1 B                |     2.92967  |     1.55031
    9 N                |   8 C                |     2.60739  |     1.37977
   10 C                |   9 N                |     2.50627  |     1.32626
   11 C                |  10 C                |     2.65040  |     1.40253
   12 C                |   8 C                |     2.67677  |     1.41648
   12 C                |  11 C                |     2.59987  |     1.37579
   13 F                |   1 B                |     2.60097  |     1.37638
   14 F                |   1 B                |     2.60097  |     1.37638
   15 H                |   3 C                |     2.02816  |     1.07326
   16 H                |   4 C                |     2.02562  |     1.07191
   17 H                |   5 C                |     2.02638  |     1.07232
   18 H                |   7 C                |     2.04017  |     1.07961
   19 H                |  10 C                |     2.02816  |     1.07326
   20 H                |  11 C                |     2.02562  |     1.07191
   21 H                |  12 C                |     2.02638  |     1.07232
 ------------------------------------------------------------------------------
                         number of included internuclear distances:         23
 ==============================================================================



 ==============================================================================
                                 internuclear angles
 ------------------------------------------------------------------------------
        center 1       |       center 2       |       center 3       |  degrees
 ------------------------------------------------------------------------------
    2 N                |   1 B                |   9 N                |   107.00
    2 N                |   1 B                |  13 F                |   109.87
    2 N                |   1 B                |  14 F                |   109.87
    9 N                |   1 B                |  13 F                |   109.87
    9 N                |   1 B                |  14 F                |   109.87
   13 F                |   1 B                |  14 F                |   110.30
    1 B                |   2 N                |   3 C                |   126.93
    1 B                |   2 N                |   6 C                |   124.80
    3 C                |   2 N                |   6 C                |   108.27
    2 N                |   3 C                |   4 C                |   110.18
    2 N                |   3 C                |  15 H                |   120.84
    4 C                |   3 C                |  15 H                |   128.98
    3 C                |   4 C                |   5 C                |   106.85
    3 C                |   4 C                |  16 H                |   125.62
    5 C                |   4 C                |  16 H                |   127.53
    4 C                |   5 C                |   6 C                |   106.86
    4 C                |   5 C                |  17 H                |   127.89
    6 C                |   5 C                |  17 H                |   125.25
    2 N                |   6 C                |   5 C                |   107.84
    2 N                |   6 C                |   7 C                |   121.23
    5 C                |   6 C                |   7 C                |   130.93
    6 C                |   7 C                |   8 C                |   120.94
    6 C                |   7 C                |  18 H                |   119.53
    8 C                |   7 C                |  18 H                |   119.53
    7 C                |   8 C                |   9 N                |   121.23
    7 C                |   8 C                |  12 C                |   130.93
    9 N                |   8 C                |  12 C                |   107.84
    1 B                |   9 N                |   8 C                |   124.80
    1 B                |   9 N                |  10 C                |   126.93
    8 C                |   9 N                |  10 C                |   108.27
    9 N                |  10 C                |  11 C                |   110.18
    9 N                |  10 C                |  19 H                |   120.84
   11 C                |  10 C                |  19 H                |   128.98
   10 C                |  11 C                |  12 C                |   106.85
   10 C                |  11 C                |  20 H                |   125.62
   12 C                |  11 C                |  20 H                |   127.53
    8 C                |  12 C                |  11 C                |   106.86
    8 C                |  12 C                |  21 H                |   125.25
   11 C                |  12 C                |  21 H                |   127.89
 ------------------------------------------------------------------------------
                            number of included internuclear angles:         39
 ==============================================================================





 Summary of "ao basis" -> "" (cartesian)
 ------------------------------------------------------------------------------
       Tag                 Description            Shells   Functions and Types
 ---------------- ------------------------------  ------  ---------------------
 *                          def2-svp                  on all atoms 




                           NWChem Geometry Optimization
                           ----------------------------




                         OLED TADF Properties Calculation


  no constraints, skipping    0.0000000000000000     
 maximum gradient threshold         (gmax) =   0.000450
 rms gradient threshold             (grms) =   0.000300
 maximum cartesian step threshold   (xmax) =   0.001800
 rms cartesian step threshold       (xrms) =   0.001200
 fixed trust radius                (trust) =   0.300000
 maximum step size to saddle      (sadstp) =   0.100000
 energy precision                  (eprec) =   5.0D-06
 maximum number of steps          (nptopt) =  100
 initial hessian option           (inhess) =    0
 line search option               (linopt) =    1
 hessian update option            (modupd) =    1
 saddle point option              (modsad) =    0
 initial eigen-mode to follow     (moddir) =    0
 initial variable to follow       (vardir) =    0
 follow first negative mode     (firstneg) =    T
 apply conjugacy                    (opcg) =    F
 source of zmatrix                         =   autoz   


          -------------------
          Energy Minimization
          -------------------


 Names of Z-matrix variables 
    1              2              3              4              5         
    6              7              8              9             10         
   11             12             13             14             15         
   16             17             18             19             20         
   21             22             23             24             25         
   26             27             28             29             30         
   31             32             33             34             35         
   36             37             38             39             40         
   41             42             43             44             45         
   46             47             48             49             50         
   51             52             53             54             55         
   56             57             58             59             60         
   61             62             63             64             65         
   66             67             68             69             70         
   71             72             73             74             75         
   76             77             78             79             80         
   81             82             83             84             85         
   86             87             88             89             90         
   91             92             93             94             95         
   96             97             98             99            100         
  101            102            103            104            105         
  106            107            108            109            110         
  111            112            113            114            115         
  116            117            118            119            120         
  121            122         

 Variables with the same non-blank name are constrained to be equal


 Using old Hessian from previous optimization

          --------
          Step   0
          --------


                         Geometry "geometry" -> "geometry"
                         ---------------------------------

 Output coordinates in angstroms (scale by  1.889725989 to convert to a.u.)

  No.       Tag          Charge          X              Y              Z
 ---- ---------------- ---------- -------------- -------------- --------------
    1 B                    5.0000     0.00000000     0.00000000    -1.20497613
    2 N                    7.0000    -1.24626844     0.00000000    -0.28286786
    3 C                    6.0000    -2.51744577     0.00000000    -0.66111573
    4 C                    6.0000    -3.35664520     0.00000000     0.46264423
    5 C                    6.0000    -2.54025760     0.00000000     1.57003212
    6 C                    6.0000    -1.20534094     0.00000000     1.09629644
    7 C                    6.0000     0.00000000     0.00000000     1.77905966
    8 C                    6.0000     1.20534094     0.00000000     1.09629644
    9 N                    7.0000     1.24626844     0.00000000    -0.28286786
   10 C                    6.0000     2.51744577     0.00000000    -0.66111573
   11 C                    6.0000     3.35664520     0.00000000     0.46264423
   12 C                    6.0000     2.54025760     0.00000000     1.57003212
   13 F                    9.0000     0.00000000     1.12949751    -1.99151791
   14 F                    9.0000     0.00000000    -1.12949751    -1.99151791
   15 H                    1.0000    -2.78195252     0.00000000    -1.70126847
   16 H                    1.0000    -4.42834727     0.00000000     0.44151755
   17 H                    1.0000    -2.83067448     0.00000000     2.60227169
   18 H                    1.0000     0.00000000     0.00000000     2.85866882
   19 H                    1.0000     2.78195252     0.00000000    -1.70126847
   20 H                    1.0000     4.42834727     0.00000000     0.44151755
   21 H                    1.0000     2.83067448     0.00000000     2.60227169

      Atomic Mass 
      ----------- 

      B                 11.009310
      N                 14.003070
      C                 12.000000
      F                 18.998400
      H                  1.007825


 Effective nuclear repulsion energy (a.u.)     866.7103892197

            Nuclear Dipole moment (a.u.) 
            ----------------------------
        X                 Y               Z
 ---------------- ---------------- ----------------
    -0.0000000000     0.0000000000    -0.0000000000

      Symmetry information
      --------------------

 Group name             C2v       
 Group number             16
 Group order               4
 No. of unique centers    12

      Symmetry unique atoms

     1    2    3    4    5    6    7   13   15   16   17   18


                                 NWChem DFT Module
                                 -----------------


                         OLED TADF Properties Calculation


                      Basis "ao basis" -> "ao basis" (cartesian)
                      -----
  B (Boron)
  ---------
            Exponent  Coefficients 
       -------------- ---------------------------------------------------------
  1 S  8.39318301E+02 -0.005593
  1 S  1.26264648E+02 -0.041566
  1 S  2.86206008E+01 -0.182998
  1 S  7.87937227E+00 -0.465404
  1 S  2.40888572E+00 -0.441739

  2 S  2.51051090E-01  1.000000

  3 S  8.36488661E-02  1.000000

  4 P  6.03322236E+00 -0.035604
  4 P  1.24991579E+00 -0.198958
  4 P  3.38716764E-01 -0.508502

  5 P  9.64156324E-02  1.000000

  6 D  5.00000000E-01  1.000000

  N (Nitrogen)
  ------------
            Exponent  Coefficients 
       -------------- ---------------------------------------------------------
  1 S  1.71284159E+03 -0.005393
  1 S  2.57648127E+02 -0.040222
  1 S  5.84582459E+01 -0.179311
  1 S  1.61983679E+01 -0.463763
  1 S  5.00526008E+00 -0.441714

  2 S  5.87318566E-01  1.000000

  3 S  1.87645923E-01  1.000000

  4 P  1.35714702E+01 -0.040072
  4 P  2.92573729E+00 -0.218070
  4 P  7.99277508E-01 -0.512945

  5 P  2.19543480E-01  1.000000

  6 D  1.00000000E+00  1.000000

  C (Carbon)
  ----------
            Exponent  Coefficients 
       -------------- ---------------------------------------------------------
  1 S  1.23840169E+03  0.005457
  1 S  1.86290050E+02  0.040638
  1 S  4.22511763E+01  0.180256
  1 S  1.16765579E+01  0.463151
  1 S  3.59305065E+00  0.440872

  2 S  4.02451474E-01  1.000000

  3 S  1.30901827E-01  1.000000

  4 P  9.46809706E+00  0.038388
  4 P  2.01035451E+00  0.211170
  4 P  5.47710047E-01  0.513282

  5 P  1.52686138E-01  1.000000

  6 D  8.00000000E-01  1.000000

  F (Fluorine)
  ------------
            Exponent  Coefficients 
       -------------- ---------------------------------------------------------
  1 S  2.89483260E+03 -0.005341
  1 S  4.35419391E+02 -0.039904
  1 S  9.88433289E+01 -0.179128
  1 S  2.74851980E+01 -0.467581
  1 S  8.54054982E+00 -0.446531

  2 S  1.06545780E+00  1.000000

  3 S  3.32473467E-01  1.000000

  4 P  2.26966339E+01 -0.045213
  4 P  4.98723393E+00 -0.237543
  4 P  1.34916140E+00 -0.512874

  5 P  3.48298820E-01  1.000000

  6 D  1.40000000E+00  1.000000

  H (Hydrogen)
  ------------
            Exponent  Coefficients 
       -------------- ---------------------------------------------------------
  1 S  1.30107010E+01  0.019682
  1 S  1.96225720E+00  0.137965
  1 S  4.44537960E-01  0.478319

  2 S  1.21949620E-01  1.000000

  3 P  8.00000000E-01  1.000000



 Summary of "ao basis" -> "ao basis" (cartesian)
 ------------------------------------------------------------------------------
       Tag                 Description            Shells   Functions and Types
 ---------------- ------------------------------  ------  ---------------------
 B                          def2-svp                 6       15   3s2p1d
 N                          def2-svp                 6       15   3s2p1d
 C                          def2-svp                 6       15   3s2p1d
 F                          def2-svp                 6       15   3s2p1d
 H                          def2-svp                 3        5   2s1p




 Summary of "ao basis" -> "ao basis" (cartesian)
 ------------------------------------------------------------------------------
       Tag                 Description            Shells   Functions and Types
 ---------------- ------------------------------  ------  ---------------------
 B                          def2-svp                 6       15   3s2p1d
 N                          def2-svp                 6       15   3s2p1d
 C                          def2-svp                 6       15   3s2p1d
 F                          def2-svp                 6       15   3s2p1d
 H                          def2-svp                 3        5   2s1p


      Symmetry analysis of basis
      --------------------------

        a1         97
        a2         29
        b1         78
        b2         41


 solvent parameters
 solvname_short: toluene 
 solvname_long:  toluene                            
 dielec:        2.3741
 dielecinf:     2.2383

          ---------------
          -cosmo- solvent
          ---------------
 Cosmo: York-Karplus, doi: 10.1021/jp992097l
 dielectric constant -eps-     =   2.37
 screen = (eps-1)/(eps    )    =   0.57879
 surface charge correction     = lagrangian
 -lineq- algorithm             =   0
 -bem- low  level              =   2
 -bem- from -octahedral-
 gaussian surface charge width =   0.98000
 degree of switching           =   1.00000
 switching function tolerance  =   0.00010
 atomic radii = 
 --------------
    1  5.000  2.047
    2  7.000  1.830
    3  6.000  2.000
    4  6.000  2.000
    5  6.000  2.000
    6  6.000  2.000
    7  6.000  2.000
    8  6.000  2.000
    9  7.000  1.830
   10  6.000  2.000
   11  6.000  2.000
   12  6.000  2.000
   13  9.000  1.720
   14  9.000  1.720
   15  1.000  1.300
   16  1.000  1.300
   17  1.000  1.300
   18  1.000  1.300
   19  1.000  1.300
   20  1.000  1.300
   21  1.000  1.300

 solvent accessible surface
 --------------------------

 ---------- ATOMIC COORDINATES (A.U.) ------------ VDWR(ANG.) --
     1    0.00000000    0.00000000   -2.27707471     2.047
     2   -2.35510586    0.00000000   -0.53454274     1.830
     3   -4.75728271    0.00000000   -1.24932758     2.000
     4   -6.34313966    0.00000000    0.87427082     2.000
     5   -4.80039080    0.00000000    2.96693049     2.000
     6   -2.27776410    0.00000000    2.07169988     2.000
     7    0.00000000    0.00000000    3.36193527     2.000
     8    2.27776410    0.00000000    2.07169988     2.000
     9    2.35510586    0.00000000   -0.53454274     1.830
    10    4.75728271    0.00000000   -1.24932758     2.000
    11    6.34313966    0.00000000    0.87427082     2.000
    12    4.80039080    0.00000000    2.96693049     2.000
    13    0.00000000    2.13444080   -3.76342315     1.720
    14    0.00000000   -2.13444080   -3.76342315     1.720
    15   -5.25712798    0.00000000   -3.21493123     1.300
    16   -8.36836292    0.00000000    0.83434718     1.300
    17   -5.34919913    0.00000000    4.91758044     1.300
    18    0.00000000    0.00000000    5.40210076     1.300
    19    5.25712798    0.00000000   -3.21493123     1.300
    20    8.36836292    0.00000000    0.83434718     1.300
    21    5.34919913    0.00000000    4.91758044     1.300
 number of segments per atom =         32
 number of   points per atom =         32
 atom (   nspa,  nppa )
 ----------------------
    1 (      4,     0 )       0
    2 (      8,     0 )       0
    3 (     14,     0 )       0
    4 (     12,     0 )       0
    5 (     16,     0 )       0
    6 (      8,     0 )       0
    7 (     12,     0 )       0
    8 (      8,     0 )       0
    9 (      8,     0 )       0
   10 (     14,     0 )       0
   11 (     12,     0 )       0
   12 (     16,     0 )       0
   13 (     22,     0 )       0
   14 (     22,     0 )       0
   15 (     14,     0 )       0
   16 (     16,     0 )       0
   17 (     14,     0 )       0
   18 (     16,     0 )       0
   19 (     14,     0 )       0
   20 (     16,     0 )       0
   21 (     14,     0 )       0
 number of -cosmo- surface points =      280
 molecular surface =    215.042 angstrom**2
 molecular volume  =    129.716 angstrom**3
 G(cav/disp)       =      1.935 kcal/mol
 ...... end of -cosmo- initialization ......


  Caching 1-el integrals 

            General Information
            -------------------
          SCF calculation type: DFT
          Wavefunction type:  closed shell.
          No. of atoms     :    21
          No. of electrons :    98
           Alpha electrons :    49
            Beta electrons :    49
          Charge           :     0
          Spin multiplicity:     1
          Use of symmetry is: on ; symmetry adaption is: on 
          Maximum number of iterations: 500
          AO basis - number of functions:   245
                     number of shells:   105
          Convergence on energy requested:  1.00D-06
          Convergence on density requested:  1.00D-05
          Convergence on gradient requested:  5.00D-04

              XC Information
              --------------
                         B3LYP Method XC Potential
                     Hartree-Fock (Exact) Exchange  0.200          
                        Slater Exchange Functional  0.800 local    
                    Becke 1988 Exchange Functional  0.720 non-local
              Lee-Yang-Parr Correlation Functional  0.810          
                  VWN I RPA Correlation Functional  0.190 local    

             Grid Information
             ----------------
          Grid used for XC integration:  xfine     
          Radial quadrature: Mura-Knowles        
          Angular quadrature: Lebedev. 
          Tag              B.-S. Rad. Rad. Pts. Rad. Cut. Ang. Pts.
          ---              ---------- --------- --------- ---------
          B                   0.85      100          12.0      1454
          N                   0.65      100          14.0      1454
          C                   0.70      100          16.0      1454
          F                   0.50      100          13.0      1454
          H                   0.35      100          16.0      1202
          Grid pruning is: on 
          Number of quadrature shells:  1200
          Spatial weights used:  Erf1

          Convergence Information
          -----------------------
          Convergence aids based upon iterative change in 
          total energy or number of iterations. 
          Levelshifting, if invoked, occurs when the 
          HOMO/LUMO gap drops below (HL_TOL):  1.00D-02
          DIIS, if invoked, will attempt to extrapolate 
          using up to (NFOCK): 10 stored Fock matrices.

                    Damping( 0%)  Levelshifting(0.5)       DIIS
                  --------------- ------------------- ---------------
          dE  on:    start            ASAP                start   
          dE off:    2 iters        500 iters           500 iters 


      Screening Tolerance Information
      -------------------------------
          Density screening/tol_rho:  1.00D-10
          AO Gaussian exp screening on grid/accAOfunc:  14
          CD Gaussian exp screening on grid/accCDfunc:  20
          XC Gaussian exp screening on grid/accXCfunc:  20
          Schwarz screening/accCoul:  1.00D-08

      Dispersion Parameters
      ---------------------

           DFT-D3BJ Model   
          s6 scale factor  :        1.000000000000
          s8 scale factor  :        1.988900000000
          a1 parameter     :        0.398100000000
          a2 parameter     :        4.421100000000
              vdW contrib  :       -0.043313478588


      Superposition of Atomic Density Guess
      -------------------------------------

 Sum of atomic energies:        -673.69562842

      Non-variational initial energy
      ------------------------------

 Total energy =    -683.335541
 1-e energy   =   -2640.320735
 2-e energy   =    1090.274805
 HOMO         =      -0.225938
 LUMO         =      -0.113651


      Symmetry analysis of molecular orbitals - initial
      -------------------------------------------------

  Numbering of irreducible representations: 

     1 a1          2 a2          3 b1          4 b2      

  Orbital symmetries:

     1 a1          2 b2          3 a1          4 b1          5 a1      
     6 b1          7 a1          8 b1          9 a1         10 b1      
    11 a1         12 b1         13 a1         14 a1         15 a1      
    16 b1         17 a1         18 b2         19 a1         20 a1      
    21 b1         22 b1         23 a1         24 a1         25 a1      
    26 b1         27 b1         28 a1         29 b1         30 b2      
    31 a1         32 a1         33 b1         34 a2         35 b2      
    36 b2         37 a2         38 a1         39 b1         40 a1      
    41 a1         42 b1         43 b1         44 a1         45 b1      
    46 b2         47 b2         48 a2         49 a2         50 b2      
    51 a2         52 b2         53 a2         54 a1         55 b1      
    56 a1         57 b2         58 a1         59 b1      

   Time after variat. SCF:      1.9
   Time prior to 1st pass:      1.9

 Integral file          = ./BODIPY.aoints.0
 Record size in doubles =  65536        No. of integs per rec  =  43688
 Max. records in memory =      0        Max. records in file   =  58585
 No. of bits per label  =      8        No. of bits per value  =     64


 #quartets = 4.007D+06 #integrals = 5.588D+07 #direct =  0.0% #cached =100.0%


 Grid_pts file          = ./BODIPY.gridpts.0
 Record size in doubles =  12289        No. of grid_pts per rec  =   3070
 Max. records in memory =    626        Max. recs in file   =    312436


           Memory utilization after 1st SCF pass: 
           Heap Space remaining (MW):        5.26             5262652
          Stack Space remaining (MW):       13.11            13105292

   convergence    iter        energy       DeltaE   RMS-Dens  Diis-err    time
 ---------------- ----- ----------------- --------- --------- ---------  ------
     COSMO gas phase
 d= 0,ls=0.0,diis     1   -680.7592301160 -1.55D+03  8.22D-03  1.86D+00    18.3
 d= 0,ls=0.0,diis     2   -680.8122822260 -5.31D-02  4.06D-03  1.60D+00    23.6
 d= 0,ls=0.0,diis     3   -680.9317913806 -1.20D-01  1.65D-03  2.09D-01    29.2
 d= 0,ls=0.0,diis     4   -680.9453626243 -1.36D-02  6.76D-04  4.58D-02    34.7
 d= 0,ls=0.0,diis     5   -680.9507519914 -5.39D-03  1.42D-04  1.61D-03    41.4
  Resetting Diis
 d= 0,ls=0.0,diis     6   -680.9509278765 -1.76D-04  4.56D-05  1.01D-04    47.9
 d= 0,ls=0.0,diis     7   -680.9509384117 -1.05D-05  4.65D-05  2.55D-05    54.4
 d= 0,ls=0.0,diis     8   -680.9509277935  1.06D-05  3.23D-05  1.04D-04    60.8
 d= 0,ls=0.0,diis     9   -680.9509417087 -1.39D-05  2.18D-06  4.20D-07    68.0
 d= 0,ls=0.0,diis    10   -680.9509417558 -4.71D-08  6.84D-07  3.59D-08    74.9

           Memory utilization after 1st SCF pass: 
           Heap Space remaining (MW):        5.26             5261796
          Stack Space remaining (MW):       13.11            13105292

   convergence    iter        energy       DeltaE   RMS-Dens  Diis-err    time
 ---------------- ----- ----------------- --------- --------- ---------  ------
     COSMO solvation phase
 d= 0,ls=0.0,diis     1   -680.9584960153 -7.55D-03  7.25D-04  2.00D-03    82.9
 d= 0,ls=0.0,diis     2   -680.9588609211 -3.65D-04  2.12D-04  1.78D-03    91.0
 d= 0,ls=0.0,diis     3   -680.9590484775 -1.88D-04  5.70D-05  4.22D-04    98.7
 d= 0,ls=0.0,diis     4   -680.9590929699 -4.45D-05  1.59D-05  3.42D-05   106.4
 d= 0,ls=0.0,diis     5   -680.9590957885 -2.82D-06  6.36D-06  3.41D-06   114.2
 d= 0,ls=0.0,diis     6   -680.9590960641 -2.76D-07  2.69D-06  4.30D-07   122.0


         Total DFT energy =     -680.959096064133
      One electron energy =    -2650.977150874653
           Coulomb energy =     1193.232421025928
    Exchange-Corr. energy =      -90.360396186876
 Nuclear repulsion energy =      866.710389219750

    Dispersion correction =       -0.043313478588

             COSMO energy =        0.478954230306

 Numeric. integr. density =       97.999999954308

     Total iterative time =    120.2s


                                   COSMO solvation results
                                   -----------------------

                 gas phase energy =      -680.950941755800
                 sol phase energy =      -680.959096064133
 (electrostatic) solvation energy =         0.008154308332 (    5.12 kcal/mol)

                  Occupations of the irreducible representations
                  ----------------------------------------------

                     irrep           alpha         beta
                     --------     --------     --------
                     a1               22.0         22.0
                     a2                4.0          4.0
                     b1               16.0         16.0
                     b2                7.0          7.0


                       DFT Final Molecular Orbital Analysis
                       ------------------------------------

 Vector    1  Occ=2.000000D+00  E=-2.465177D+01  Symmetry=a1
              MO Center=  1.0D-21,  8.3D-17, -2.0D+00, r^2= 1.3D+00
   Bfn.  Coefficient  Atom+Function         Bfn.  Coefficient  Atom+Function  
  ----- ------------  ---------------      ----- ------------  ---------------
   181      0.696782  13 F  s               196      0.696782  14 F  s         
   182     -0.033161  13 F  s               197     -0.033161  14 F  s         

 Vector    2  Occ=2.000000D+00  E=-2.465177D+01  Symmetry=b2
              MO Center= -9.3D-21, -5.2D-16, -2.0D+00, r^2= 1.3D+00
   Bfn.  Coefficient  Atom+Function         Bfn.  Coefficient  Atom+Function  
  ----- ------------  ---------------      ----- ------------  ---------------
   181      0.696766  13 F  s               196     -0.696766  14 F  s         
   182     -0.032960  13 F  s               197      0.032960  14 F  s         

 Vector    3  Occ=2.000000D+00  E=-1.437764D+01  Symmetry=b1
              MO Center=  8.4D-09, -2.9D-21, -2.8D-01, r^2= 1.6D+00
   Bfn.  Coefficient  Atom+Function         Bfn.  Coefficient  Atom+Function  
  ----- ------------  ---------------      ----- ------------  ---------------
    16      0.697201   2 N  s               121     -0.697201   9 N  s         
    17     -0.038738   2 N  s               122      0.038738   9 N  s         
    18      0.030112   2 N  s               123     -0.030112   9 N  s         

 Vector    4  Occ=2.000000D+00  E=-1.437764D+01  Symmetry=a1
              MO Center= -8.4D-09, -4.5D-20, -2.8D-01, r^2= 1.6D+00
   Bfn.  Coefficient  Atom+Function         Bfn.  Coefficient  Atom+Function  
  ----- ------------  ---------------      ----- ------------  ---------------
    16      0.697183   2 N  s               121      0.697183   9 N  s         
    17     -0.038419   2 N  s               122     -0.038419   9 N  s         
    18      0.026506   2 N  s               123      0.026506   9 N  s         

 Vector    5  Occ=2.000000D+00  E=-1.025068D+01  Symmetry=a1
              MO Center= -2.8D-13, -1.2D-19,  1.8D+00, r^2= 3.3D-02
   Bfn.  Coefficient  Atom+Function         Bfn.  Coefficient  Atom+Function  
  ----- ------------  ---------------      ----- ------------  ---------------
    91      0.986189   7 C  s                92      0.053094   7 C  s         
    76      0.031026   6 C  s               106      0.031026   8 C  s         

 Vector    6  Occ=2.000000D+00  E=-1.024737D+01  Symmetry=b1
              MO Center= -1.3D-09, -8.2D-18, -6.6D-01, r^2= 6.4D+00
   Bfn.  Coefficient  Atom+Function         Bfn.  Coefficient  Atom+Function  
  ----- ------------  ---------------      ----- ------------  ---------------
    31      0.698129   3 C  s               136     -0.698129  10 C  s         
    32      0.037947   3 C  s               137     -0.037947  10 C  s         

 Vector    7  Occ=2.000000D+00  E=-1.024735D+01  Symmetry=a1
              MO Center=  1.3D-09, -1.3D-18, -6.6D-01, r^2= 6.4D+00
   Bfn.  Coefficient  Atom+Function         Bfn.  Coefficient  Atom+Function  
  ----- ------------  ---------------      ----- ------------  ---------------
    31      0.698075   3 C  s               136      0.698075  10 C  s         
    32      0.037322   3 C  s               137      0.037322  10 C  s         

 Vector    8  Occ=2.000000D+00  E=-1.024284D+01  Symmetry=a1
              MO Center= -1.1D-16, -5.3D-22,  1.1D+00, r^2= 1.5D+00
   Bfn.  Coefficient  Atom+Function         Bfn.  Coefficient  Atom+Function  
  ----- ------------  ---------------      ----- ------------  ---------------
    76      0.697386   6 C  s               106      0.697386   8 C  s         
    91     -0.044061   7 C  s                77      0.037814   6 C  s         
   107      0.037814   8 C  s         

 Vector    9  Occ=2.000000D+00  E=-1.024275D+01  Symmetry=b1
              MO Center= -1.2D-14,  7.8D-24,  1.1D+00, r^2= 1.5D+00
   Bfn.  Coefficient  Atom+Function         Bfn.  Coefficient  Atom+Function  
  ----- ------------  ---------------      ----- ------------  ---------------
    76      0.698058   6 C  s               106     -0.698058   8 C  s         
    77      0.036786   6 C  s               107     -0.036786   8 C  s         

 Vector   10  Occ=2.000000D+00  E=-1.021515D+01  Symmetry=a1
              MO Center= -4.1D-09,  2.2D-21,  1.6D+00, r^2= 6.5D+00
   Bfn.  Coefficient  Atom+Function         Bfn.  Coefficient  Atom+Function  
  ----- ------------  ---------------      ----- ------------  ---------------
    61      0.697921   5 C  s               166      0.697921  12 C  s         
    93     -0.037978   7 C  s                62      0.037278   5 C  s         
   167      0.037278  12 C  s                78      0.026759   6 C  s         
   108      0.026759   8 C  s         

 Vector   11  Occ=2.000000D+00  E=-1.021515D+01  Symmetry=b1
              MO Center=  4.1D-09,  3.6D-23,  1.6D+00, r^2= 6.5D+00
   Bfn.  Coefficient  Atom+Function         Bfn.  Coefficient  Atom+Function  
  ----- ------------  ---------------      ----- ------------  ---------------
    61      0.697920   5 C  s               166     -0.697920  12 C  s         
    62      0.036714   5 C  s               167     -0.036714  12 C  s         

 Vector   12  Occ=2.000000D+00  E=-1.020373D+01  Symmetry=b1
              MO Center=  3.1D-16,  3.0D-23,  4.6D-01, r^2= 1.1D+01
   Bfn.  Coefficient  Atom+Function         Bfn.  Coefficient  Atom+Function  
  ----- ------------  ---------------      ----- ------------  ---------------
    46      0.697922   4 C  s               151     -0.697922  11 C  s         
    47      0.036796   4 C  s               152     -0.036796  11 C  s         

 Vector   13  Occ=2.000000D+00  E=-1.020372D+01  Symmetry=a1
              MO Center= -5.9D-16, -1.1D-20,  4.6D-01, r^2= 1.1D+01
   Bfn.  Coefficient  Atom+Function         Bfn.  Coefficient  Atom+Function  
  ----- ------------  ---------------      ----- ------------  ---------------
    46      0.697915   4 C  s               151      0.697915  11 C  s         
    47      0.036740   4 C  s               152      0.036740  11 C  s         
    48     -0.025158   4 C  s               153     -0.025158  11 C  s         

 Vector   14  Occ=2.000000D+00  E=-6.836077D+00  Symmetry=a1
              MO Center=  4.3D-18, -6.5D-18, -1.2D+00, r^2= 4.1D-02
   Bfn.  Coefficient  Atom+Function         Bfn.  Coefficient  Atom+Function  
  ----- ------------  ---------------      ----- ------------  ---------------
     1      0.987215   1 B  s                 2     -0.066547   1 B  s         
    93      0.026351   7 C  s         

 Vector   15  Occ=2.000000D+00  E=-1.153361D+00  Symmetry=a1
              MO Center=  9.5D-17, -3.3D-14, -1.9D+00, r^2= 1.4D+00
   Bfn.  Coefficient  Atom+Function         Bfn.  Coefficient  Atom+Function  
  ----- ------------  ---------------      ----- ------------  ---------------
   182      0.409531  13 F  s               197      0.409531  14 F  s         
   183      0.241050  13 F  s               198      0.241050  14 F  s         
   181      0.204574  13 F  s               196      0.204574  14 F  s         
     2      0.163304   1 B  s                 1      0.094833   1 B  s         
     6      0.086561   1 B  pz              185      0.056512  13 F  py        

 Vector   16  Occ=2.000000D+00  E=-1.118309D+00  Symmetry=b2
              MO Center= -4.8D-17,  3.6D-14, -1.9D+00, r^2= 1.5D+00
   Bfn.  Coefficient  Atom+Function         Bfn.  Coefficient  Atom+Function  
  ----- ------------  ---------------      ----- ------------  ---------------
   182      0.431491  13 F  s               197     -0.431491  14 F  s         
   183      0.262193  13 F  s               198     -0.262193  14 F  s         
   181      0.215405  13 F  s               196     -0.215405  14 F  s         
     5     -0.147662   1 B  py               14     -0.070962   1 B  dyz       
   185      0.039512  13 F  py              200      0.039512  14 F  py        

 Vector   17  Occ=2.000000D+00  E=-1.003008D+00  Symmetry=a1
              MO Center= -2.6D-14, -1.2D-15,  7.9D-02, r^2= 3.6D+00
   Bfn.  Coefficient  Atom+Function         Bfn.  Coefficient  Atom+Function  
  ----- ------------  ---------------      ----- ------------  ---------------
    17      0.289369   2 N  s               122      0.289369   9 N  s         
    77      0.162132   6 C  s               107      0.162132   8 C  s         
    16      0.145270   2 N  s               121      0.145270   9 N  s         
    32      0.141973   3 C  s               137      0.141973  10 C  s         
    76     -0.087387   6 C  s               106     -0.087387   8 C  s         

 Vector   18  Occ=2.000000D+00  E=-9.867100D-01  Symmetry=b1
              MO Center=  2.8D-14,  1.6D-16,  2.8D-02, r^2= 4.0D+00
   Bfn.  Coefficient  Atom+Function         Bfn.  Coefficient  Atom+Function  
  ----- ------------  ---------------      ----- ------------  ---------------
    17      0.294334   2 N  s               122     -0.294334   9 N  s         
    32      0.164557   3 C  s               137     -0.164557  10 C  s         
    16      0.146457   2 N  s               121     -0.146457   9 N  s         
    77      0.143517   6 C  s               107     -0.143517   8 C  s         
    31     -0.087849   3 C  s               136      0.087849  10 C  s         

 Vector   19  Occ=2.000000D+00  E=-8.224971D-01  Symmetry=a1
              MO Center= -9.3D-15,  5.1D-16,  9.6D-01, r^2= 3.4D+00
   Bfn.  Coefficient  Atom+Function         Bfn.  Coefficient  Atom+Function  
  ----- ------------  ---------------      ----- ------------  ---------------
    92      0.347156   7 C  s                77      0.197050   6 C  s         
   107      0.197050   8 C  s                91     -0.182755   7 C  s         
    32     -0.155688   3 C  s               137     -0.155688  10 C  s         
    79      0.106523   6 C  px              109     -0.106523   8 C  px        
    93      0.105324   7 C  s                76     -0.103891   6 C  s         

 Vector   20  Occ=2.000000D+00  E=-7.973057D-01  Symmetry=a1
              MO Center= -6.6D-14, -1.0D-16,  6.2D-01, r^2= 7.2D+00
   Bfn.  Coefficient  Atom+Function         Bfn.  Coefficient  Atom+Function  
  ----- ------------  ---------------      ----- ------------  ---------------
    62      0.220777   5 C  s               167      0.220777  12 C  s         
    47      0.200728   4 C  s               152      0.200728  11 C  s         
    17     -0.194252   2 N  s               122     -0.194252   9 N  s         
    61     -0.117820   5 C  s               166     -0.117820  12 C  s         
    46     -0.108201   4 C  s               151     -0.108201  11 C  s         

 Vector   21  Occ=2.000000D+00  E=-7.848926D-01  Symmetry=b1
              MO Center=  5.6D-14,  8.0D-20,  6.7D-01, r^2= 7.5D+00
   Bfn.  Coefficient  Atom+Function         Bfn.  Coefficient  Atom+Function  
  ----- ------------  ---------------      ----- ------------  ---------------
    62      0.235678   5 C  s               167     -0.235678  12 C  s         
    17     -0.203743   2 N  s               122      0.203743   9 N  s         
    47      0.198930   4 C  s               152     -0.198930  11 C  s         
    61     -0.125091   5 C  s               166      0.125091  12 C  s         
    46     -0.106710   4 C  s               151      0.106710  11 C  s         

 Vector   22  Occ=2.000000D+00  E=-7.340712D-01  Symmetry=b1
              MO Center=  1.5D-14, -1.7D-21,  3.3D-01, r^2= 6.5D+00
   Bfn.  Coefficient  Atom+Function         Bfn.  Coefficient  Atom+Function  
  ----- ------------  ---------------      ----- ------------  ---------------
    77     -0.246056   6 C  s               107      0.246056   8 C  s         
    32      0.223983   3 C  s               137     -0.223983  10 C  s         
    47      0.162589   4 C  s               152     -0.162589  11 C  s         
    94      0.139479   7 C  px               76      0.123532   6 C  s         
   106     -0.123532   8 C  s                21      0.114561   2 N  pz        

 Vector   23  Occ=2.000000D+00  E=-6.743730D-01  Symmetry=a1
              MO Center=  3.1D-16,  9.2D-21,  4.5D-01, r^2= 6.7D+00
   Bfn.  Coefficient  Atom+Function         Bfn.  Coefficient  Atom+Function  
  ----- ------------  ---------------      ----- ------------  ---------------
    92      0.277890   7 C  s                32      0.233631   3 C  s         
   137      0.233631  10 C  s                93      0.231509   7 C  s         
    62     -0.152133   5 C  s               167     -0.152133  12 C  s         
    91     -0.137702   7 C  s               226      0.128756  18 H  s         
    79      0.122940   6 C  px              109     -0.122940   8 C  px        

 Vector   24  Occ=2.000000D+00  E=-6.164097D-01  Symmetry=a1
              MO Center=  4.6D-14,  1.3D-16,  2.1D-01, r^2= 8.1D+00
   Bfn.  Coefficient  Atom+Function         Bfn.  Coefficient  Atom+Function  
  ----- ------------  ---------------      ----- ------------  ---------------
    47      0.208835   4 C  s               152      0.208835  11 C  s         
    19     -0.207036   2 N  px              124      0.207036   9 N  px        
     2      0.190339   1 B  s               216      0.134274  16 H  s         
   236      0.134274  20 H  s                93     -0.131760   7 C  s         
    34     -0.130139   3 C  px              139      0.130139  10 C  px        

 Vector   25  Occ=2.000000D+00  E=-6.008219D-01  Symmetry=a1
              MO Center= -1.5D-13, -8.2D-16,  4.8D-01, r^2= 6.6D+00
   Bfn.  Coefficient  Atom+Function         Bfn.  Coefficient  Atom+Function  
  ----- ------------  ---------------      ----- ------------  ---------------
     2      0.208375   1 B  s                21      0.204371   2 N  pz        
   126      0.204371   9 N  pz               93     -0.173208   7 C  s         
    62      0.170258   5 C  s               167      0.170258  12 C  s         
   221      0.135333  17 H  s               241      0.135333  21 H  s         
    81      0.133159   6 C  pz              111      0.133159   8 C  pz        

 Vector   26  Occ=2.000000D+00  E=-5.898819D-01  Symmetry=b1
              MO Center=  6.8D-14,  3.0D-16,  5.3D-01, r^2= 7.3D+00
   Bfn.  Coefficient  Atom+Function         Bfn.  Coefficient  Atom+Function  
  ----- ------------  ---------------      ----- ------------  ---------------
    21      0.206326   2 N  pz              126     -0.206326   9 N  pz        
    62      0.169509   5 C  s               167     -0.169509  12 C  s         
    81      0.163955   6 C  pz              111     -0.163955   8 C  pz        
    63      0.153919   5 C  s               168     -0.153919  12 C  s         
   221      0.146575  17 H  s               241     -0.146575  21 H  s         

 Vector   27  Occ=2.000000D+00  E=-5.839445D-01  Symmetry=b1
              MO Center=  4.1D-14,  6.3D-17,  5.1D-01, r^2= 7.6D+00
   Bfn.  Coefficient  Atom+Function         Bfn.  Coefficient  Atom+Function  
  ----- ------------  ---------------      ----- ------------  ---------------
    94      0.238203   7 C  px               32     -0.177897   3 C  s         
   137      0.177897  10 C  s                77     -0.173941   6 C  s         
   107      0.173941   8 C  s                51      0.150897   4 C  pz        
   156     -0.150897  11 C  pz              211     -0.129158  15 H  s         
   231      0.129158  19 H  s                64     -0.128284   5 C  px        

 Vector   28  Occ=2.000000D+00  E=-5.529015D-01  Symmetry=b1
              MO Center= -4.5D-15, -1.8D-19,  2.6D-01, r^2= 8.9D+00
   Bfn.  Coefficient  Atom+Function         Bfn.  Coefficient  Atom+Function  
  ----- ------------  ---------------      ----- ------------  ---------------
    19      0.194668   2 N  px              124      0.194668   9 N  px        
   216     -0.173968  16 H  s               236      0.173968  20 H  s         
    49      0.162257   4 C  px              154      0.162257  11 C  px        
    79     -0.160495   6 C  px              109     -0.160495   8 C  px        
     4     -0.159647   1 B  px               94      0.159675   7 C  px        

 Vector   29  Occ=2.000000D+00  E=-5.154951D-01  Symmetry=a1
              MO Center= -1.2D-15,  3.2D-15,  2.9D-01, r^2= 8.5D+00
   Bfn.  Coefficient  Atom+Function         Bfn.  Coefficient  Atom+Function  
  ----- ------------  ---------------      ----- ------------  ---------------
    93      0.312382   7 C  s                63     -0.222937   5 C  s         
   168     -0.222937  12 C  s               226      0.224041  18 H  s         
    96      0.209620   7 C  pz              211     -0.195804  15 H  s         
   231     -0.195804  19 H  s                48      0.183966   4 C  s         
   153      0.183966  11 C  s                36      0.178028   3 C  pz        

 Vector   30  Occ=2.000000D+00  E=-5.082177D-01  Symmetry=a1
              MO Center=  9.0D-15, -1.3D-14, -9.1D-01, r^2= 6.5D+00
   Bfn.  Coefficient  Atom+Function         Bfn.  Coefficient  Atom+Function  
  ----- ------------  ---------------      ----- ------------  ---------------
   185      0.301112  13 F  py              200     -0.301112  14 F  py        
     2      0.255542   1 B  s               188     -0.169228  13 F  py        
   203      0.169228  14 F  py                6      0.162857   1 B  pz        
    64      0.122523   5 C  px              169     -0.122523  12 C  px        
   183     -0.121620  13 F  s               198     -0.121620  14 F  s         

 Vector   31  Occ=2.000000D+00  E=-4.885500D-01  Symmetry=b2
              MO Center= -7.6D-16,  1.5D-14, -1.2D+00, r^2= 3.3D+00
   Bfn.  Coefficient  Atom+Function         Bfn.  Coefficient  Atom+Function  
  ----- ------------  ---------------      ----- ------------  ---------------
     5      0.290330   1 B  py              186      0.271423  13 F  pz        
   201     -0.271423  14 F  pz              185     -0.192196  13 F  py        
   200     -0.192196  14 F  py               20      0.169672   2 N  py        
   125      0.169672   9 N  py              189     -0.154706  13 F  pz        
   204      0.154706  14 F  pz              183      0.141428  13 F  s         

 Vector   32  Occ=2.000000D+00  E=-4.701411D-01  Symmetry=a1
              MO Center= -1.8D-14, -6.5D-15,  1.5D-01, r^2= 6.0D+00
   Bfn.  Coefficient  Atom+Function         Bfn.  Coefficient  Atom+Function  
  ----- ------------  ---------------      ----- ------------  ---------------
    96     -0.248223   7 C  pz                6      0.228433   1 B  pz        
   185      0.199847  13 F  py              200     -0.199847  14 F  py        
   226     -0.177428  18 H  s                19      0.171585   2 N  px        
   124     -0.171585   9 N  px               79      0.150977   6 C  px        
   109     -0.150977   8 C  px               34      0.146224   3 C  px        

 Vector   33  Occ=2.000000D+00  E=-4.602194D-01  Symmetry=b1
              MO Center= -8.6D-15,  2.5D-15,  2.5D-01, r^2= 7.7D+00
   Bfn.  Coefficient  Atom+Function         Bfn.  Coefficient  Atom+Function  
  ----- ------------  ---------------      ----- ------------  ---------------
    21      0.183221   2 N  pz              126     -0.183221   9 N  pz        
    66     -0.178749   5 C  pz              171      0.178749  12 C  pz        
   184      0.176904  13 F  px              199      0.176904  14 F  px        
   221     -0.174747  17 H  s               241      0.174747  21 H  s         
     4      0.172978   1 B  px               81      0.172669   6 C  pz        

 Vector   34  Occ=2.000000D+00  E=-4.478446D-01  Symmetry=b1
              MO Center= -1.2D-13,  6.2D-15, -3.1D-01, r^2= 7.1D+00
   Bfn.  Coefficient  Atom+Function         Bfn.  Coefficient  Atom+Function  
  ----- ------------  ---------------      ----- ------------  ---------------
    19      0.211796   2 N  px              124      0.211796   9 N  px        
    94     -0.197158   7 C  px               34      0.190712   3 C  px        
   139      0.190712  10 C  px               63     -0.188410   5 C  s         
   168      0.188410  12 C  s               184     -0.174259  13 F  px        
   199     -0.174259  14 F  px                4     -0.153863   1 B  px        

 Vector   35  Occ=2.000000D+00  E=-4.411279D-01  Symmetry=a1
              MO Center=  1.2D-13,  2.6D-15,  6.5D-01, r^2= 1.0D+01
   Bfn.  Coefficient  Atom+Function         Bfn.  Coefficient  Atom+Function  
  ----- ------------  ---------------      ----- ------------  ---------------
    49      0.245241   4 C  px              154     -0.245241  11 C  px        
    96     -0.215237   7 C  pz              216     -0.202898  16 H  s         
   236     -0.202898  20 H  s                93      0.170243   7 C  s         
   226     -0.146778  18 H  s                66     -0.131893   5 C  pz        
   171     -0.131893  12 C  pz               78     -0.126674   6 C  s         

 Vector   36  Occ=2.000000D+00  E=-4.395133D-01  Symmetry=b2
              MO Center= -1.3D-13, -1.9D-15, -2.8D-01, r^2= 5.2D+00
   Bfn.  Coefficient  Atom+Function         Bfn.  Coefficient  Atom+Function  
  ----- ------------  ---------------      ----- ------------  ---------------
   185      0.198857  13 F  py              200      0.198857  14 F  py        
    80     -0.183578   6 C  py              110     -0.183578   8 C  py        
     5     -0.175722   1 B  py               20      0.173367   2 N  py        
   125      0.173367   9 N  py              186     -0.172318  13 F  pz        
   201      0.172318  14 F  pz               95     -0.153197   7 C  py        

 Vector   37  Occ=2.000000D+00  E=-4.346156D-01  Symmetry=a2
              MO Center=  1.3D-13, -7.8D-15, -1.1D-01, r^2= 5.3D+00
   Bfn.  Coefficient  Atom+Function         Bfn.  Coefficient  Atom+Function  
  ----- ------------  ---------------      ----- ------------  ---------------
    20      0.258511   2 N  py              125     -0.258511   9 N  py        
    35     -0.176729   3 C  py              140      0.176729  10 C  py        
    23     -0.167123   2 N  py              128      0.167123   9 N  py        
    80     -0.156487   6 C  py              110      0.156487   8 C  py        
   184     -0.140123  13 F  px              199      0.140123  14 F  px        

 Vector   38  Occ=2.000000D+00  E=-4.148049D-01  Symmetry=a1
              MO Center= -2.4D-13, -1.6D-15,  1.0D+00, r^2= 9.6D+00
   Bfn.  Coefficient  Atom+Function         Bfn.  Coefficient  Atom+Function  
  ----- ------------  ---------------      ----- ------------  ---------------
   221      0.196330  17 H  s               241      0.196330  21 H  s         
    66      0.173051   5 C  pz              171      0.173051  12 C  pz        
   216     -0.149267  16 H  s               236     -0.149267  20 H  s         
    78     -0.146925   6 C  s               108     -0.146925   8 C  s         
    49      0.143106   4 C  px              154     -0.143106  11 C  px        

 Vector   39  Occ=2.000000D+00  E=-4.102867D-01  Symmetry=a1
              MO Center= -3.2D-15, -5.2D-16, -9.0D-02, r^2= 8.5D+00
   Bfn.  Coefficient  Atom+Function         Bfn.  Coefficient  Atom+Function  
  ----- ------------  ---------------      ----- ------------  ---------------
    36      0.197412   3 C  pz              141      0.197412  10 C  pz        
   186     -0.194593  13 F  pz              201     -0.194593  14 F  pz        
    51     -0.187292   4 C  pz              156     -0.187292  11 C  pz        
   211     -0.171437  15 H  s               231     -0.171437  19 H  s         
    66      0.158286   5 C  pz               96     -0.157686   7 C  pz        

 Vector   40  Occ=2.000000D+00  E=-4.071582D-01  Symmetry=b1
              MO Center=  2.4D-13,  4.8D-15,  3.1D-01, r^2= 1.0D+01
   Bfn.  Coefficient  Atom+Function         Bfn.  Coefficient  Atom+Function  
  ----- ------------  ---------------      ----- ------------  ---------------
    51     -0.241585   4 C  pz              156      0.241585  11 C  pz        
    36      0.229058   3 C  pz              141     -0.229058  10 C  pz        
    66      0.211117   5 C  pz              171     -0.211117  12 C  pz        
   221      0.174867  17 H  s               241     -0.174867  21 H  s         
   211     -0.150885  15 H  s               231      0.150885  19 H  s         

 Vector   41  Occ=2.000000D+00  E=-3.972077D-01  Symmetry=b1
              MO Center=  2.9D-14, -3.0D-15,  8.6D-01, r^2= 9.3D+00
   Bfn.  Coefficient  Atom+Function         Bfn.  Coefficient  Atom+Function  
  ----- ------------  ---------------      ----- ------------  ---------------
    79     -0.259257   6 C  px              109     -0.259257   8 C  px        
    64      0.248498   5 C  px              169      0.248498  12 C  px        
    49     -0.222341   4 C  px              154     -0.222341  11 C  px        
    94      0.218268   7 C  px              216      0.199342  16 H  s         
   236     -0.199342  20 H  s               217      0.104023  16 H  s         

 Vector   42  Occ=2.000000D+00  E=-3.758650D-01  Symmetry=a2
              MO Center= -1.3D-15,  7.8D-15, -1.6D+00, r^2= 3.3D+00
   Bfn.  Coefficient  Atom+Function         Bfn.  Coefficient  Atom+Function  
  ----- ------------  ---------------      ----- ------------  ---------------
   184      0.443106  13 F  px              199     -0.443106  14 F  px        
   187     -0.312090  13 F  px              202      0.312090  14 F  px        
    65     -0.078562   5 C  py              170      0.078562  12 C  py        
    80     -0.074952   6 C  py              110      0.074952   8 C  py        
    50     -0.071890   4 C  py              155      0.071890  11 C  py        

 Vector   43  Occ=2.000000D+00  E=-3.744773D-01  Symmetry=a1
              MO Center= -3.6D-15,  1.2D-16, -1.1D+00, r^2= 4.4D+00
   Bfn.  Coefficient  Atom+Function         Bfn.  Coefficient  Atom+Function  
  ----- ------------  ---------------      ----- ------------  ---------------
   186      0.361251  13 F  pz              201      0.361251  14 F  pz        
   189     -0.232552  13 F  pz              204     -0.232552  14 F  pz        
    21      0.174122   2 N  pz              126      0.174122   9 N  pz        
    93     -0.165563   7 C  s                 9     -0.153485   1 B  pz        
     6     -0.143435   1 B  pz               81      0.142359   6 C  pz        

 Vector   44  Occ=2.000000D+00  E=-3.607670D-01  Symmetry=b2
              MO Center=  1.9D-15,  1.8D-15, -1.8D+00, r^2= 2.4D+00
   Bfn.  Coefficient  Atom+Function         Bfn.  Coefficient  Atom+Function  
  ----- ------------  ---------------      ----- ------------  ---------------
   185      0.378811  13 F  py              200      0.378811  14 F  py        
   186      0.282445  13 F  pz              201     -0.282445  14 F  pz        
   188     -0.246274  13 F  py              203     -0.246274  14 F  py        
   189     -0.198585  13 F  pz              204      0.198585  14 F  pz        
     8     -0.116819   1 B  py               14     -0.064366   1 B  dyz       

 Vector   45  Occ=2.000000D+00  E=-3.488880D-01  Symmetry=b1
              MO Center=  1.1D-15, -9.9D-15, -9.9D-01, r^2= 3.8D+00
   Bfn.  Coefficient  Atom+Function         Bfn.  Coefficient  Atom+Function  
  ----- ------------  ---------------      ----- ------------  ---------------
   184      0.337612  13 F  px              199      0.337612  14 F  px        
   187     -0.222727  13 F  px              202     -0.222727  14 F  px        
    19      0.204054   2 N  px              124      0.204054   9 N  px        
    21     -0.169894   2 N  pz              126      0.169894   9 N  pz        
     4     -0.155258   1 B  px                7     -0.154310   1 B  px        

 Vector   46  Occ=2.000000D+00  E=-3.158992D-01  Symmetry=b2
              MO Center= -4.3D-16, -4.9D-16,  6.7D-01, r^2= 5.4D+00
   Bfn.  Coefficient  Atom+Function         Bfn.  Coefficient  Atom+Function  
  ----- ------------  ---------------      ----- ------------  ---------------
    95      0.350024   7 C  py               98      0.231156   7 C  py        
    35     -0.219196   3 C  py              140     -0.219196  10 C  py        
    80      0.196482   6 C  py              110      0.196482   8 C  py        
    50     -0.142326   4 C  py              155     -0.142326  11 C  py        
    38     -0.139599   3 C  py              143     -0.139599  10 C  py        

 Vector   47  Occ=2.000000D+00  E=-2.780341D-01  Symmetry=b2
              MO Center=  1.8D-13,  4.7D-16,  5.1D-01, r^2= 8.1D+00
   Bfn.  Coefficient  Atom+Function         Bfn.  Coefficient  Atom+Function  
  ----- ------------  ---------------      ----- ------------  ---------------
    20      0.250793   2 N  py              125      0.250793   9 N  py        
    65      0.249066   5 C  py              170      0.249066  12 C  py        
    50      0.235975   4 C  py              155      0.235975  11 C  py        
    23     -0.186663   2 N  py              128     -0.186663   9 N  py        
    68      0.178021   5 C  py              173      0.178021  12 C  py        

 Vector   48  Occ=2.000000D+00  E=-2.712521D-01  Symmetry=a2
              MO Center= -1.8D-13, -6.0D-16,  5.5D-01, r^2= 7.8D+00
   Bfn.  Coefficient  Atom+Function         Bfn.  Coefficient  Atom+Function  
  ----- ------------  ---------------      ----- ------------  ---------------
    20      0.270906   2 N  py              125     -0.270906   9 N  py        
    65      0.257898   5 C  py              170     -0.257898  12 C  py        
    50      0.219353   4 C  py              155     -0.219353  11 C  py        
    23     -0.209173   2 N  py              128      0.209173   9 N  py        
    68      0.178298   5 C  py              173     -0.178298  12 C  py        

 Vector   49  Occ=2.000000D+00  E=-2.284792D-01  Symmetry=a2
              MO Center=  1.2D-15, -5.5D-17,  4.2D-01, r^2= 7.0D+00
   Bfn.  Coefficient  Atom+Function         Bfn.  Coefficient  Atom+Function  
  ----- ------------  ---------------      ----- ------------  ---------------
    80      0.296725   6 C  py              110     -0.296725   8 C  py        
    35     -0.259775   3 C  py              140      0.259775  10 C  py        
    83      0.226567   6 C  py              113     -0.226567   8 C  py        
    38     -0.192161   3 C  py              143      0.192161  10 C  py        
    50     -0.184505   4 C  py              155      0.184505  11 C  py        

 Vector   50  Occ=0.000000D+00  E=-1.123001D-01  Symmetry=b2
              MO Center= -6.7D-15,  3.2D-17,  7.5D-01, r^2= 6.6D+00
   Bfn.  Coefficient  Atom+Function         Bfn.  Coefficient  Atom+Function  
  ----- ------------  ---------------      ----- ------------  ---------------
    95      0.366592   7 C  py               98      0.359034   7 C  py        
    35      0.241115   3 C  py              140      0.241115  10 C  py        
    65     -0.231624   5 C  py              170     -0.231624  12 C  py        
    38      0.228102   3 C  py              143      0.228102  10 C  py        
    68     -0.218500   5 C  py              173     -0.218500  12 C  py        

 Vector   51  Occ=0.000000D+00  E= 1.972483D-02  Symmetry=a2
              MO Center= -1.0D-13,  9.7D-18,  2.4D-01, r^2= 6.1D+00
   Bfn.  Coefficient  Atom+Function         Bfn.  Coefficient  Atom+Function  
  ----- ------------  ---------------      ----- ------------  ---------------
    83     -0.369405   6 C  py              113      0.369405   8 C  py        
    23      0.364558   2 N  py              128     -0.364558   9 N  py        
    38     -0.351042   3 C  py              143      0.351042  10 C  py        
    20     -0.283759   2 N  py               80     -0.284908   6 C  py        
   110      0.284908   8 C  py              125      0.283759   9 N  py        

 Vector   52  Occ=0.000000D+00  E= 3.670528D-02  Symmetry=b2
              MO Center=  1.0D-13, -9.0D-17,  1.5D-01, r^2= 9.9D+00
   Bfn.  Coefficient  Atom+Function         Bfn.  Coefficient  Atom+Function  
  ----- ------------  ---------------      ----- ------------  ---------------
    53      0.492723   4 C  py              158      0.492723  11 C  py        
    38     -0.433269   3 C  py              143     -0.433269  10 C  py        
    50      0.300866   4 C  py              155      0.300866  11 C  py        
    35     -0.276434   3 C  py              140     -0.276434  10 C  py        
    68     -0.269678   5 C  py              173     -0.269678  12 C  py        

 Vector   53  Occ=0.000000D+00  E= 5.718696D-02  Symmetry=a2
              MO Center= -9.3D-15,  3.1D-17,  7.5D-01, r^2= 1.0D+01
   Bfn.  Coefficient  Atom+Function         Bfn.  Coefficient  Atom+Function  
  ----- ------------  ---------------      ----- ------------  ---------------
    53      0.506095   4 C  py              158     -0.506095  11 C  py        
    68     -0.478038   5 C  py              173      0.478038  12 C  py        
    38     -0.310665   3 C  py              143      0.310665  10 C  py        
    50      0.289412   4 C  py              155     -0.289412  11 C  py        
    65     -0.280281   5 C  py              170      0.280281  12 C  py        

 Vector   54  Occ=0.000000D+00  E= 7.200741D-02  Symmetry=a1
              MO Center= -8.6D-14, -1.1D-15,  2.7D+00, r^2= 8.7D+00
   Bfn.  Coefficient  Atom+Function         Bfn.  Coefficient  Atom+Function  
  ----- ------------  ---------------      ----- ------------  ---------------
   227      1.514859  18 H  s               222      0.896032  17 H  s         
   242      0.896032  21 H  s                99     -0.861908   7 C  pz        
    93     -0.648587   7 C  s                63     -0.461984   5 C  s         
   168     -0.461984  12 C  s                69     -0.441173   5 C  pz        
   174     -0.441173  12 C  pz              217      0.380886  16 H  s         

 Vector   55  Occ=0.000000D+00  E= 8.604010D-02  Symmetry=b1
              MO Center=  8.7D-14,  1.1D-16,  9.3D-01, r^2= 2.0D+01
   Bfn.  Coefficient  Atom+Function         Bfn.  Coefficient  Atom+Function  
  ----- ------------  ---------------      ----- ------------  ---------------
   222      1.005536  17 H  s               242     -1.005536  21 H  s         
   217      0.920789  16 H  s               237     -0.920789  20 H  s         
    48     -0.708241   4 C  s               153      0.708241  11 C  s         
   212      0.667640  15 H  s               232     -0.667640  19 H  s         
    63     -0.580192   5 C  s               168      0.580192  12 C  s         

 Vector   56  Occ=0.000000D+00  E= 9.152091D-02  Symmetry=a1
              MO Center= -4.7D-15, -1.2D-17, -2.7D-02, r^2= 1.8D+01
   Bfn.  Coefficient  Atom+Function         Bfn.  Coefficient  Atom+Function  
[...]
   193     -1.007872  13 F  dyy             195     -1.006379  13 F  dzz       
   208      1.007872  14 F  dyy             210      1.006379  14 F  dzz       

 Vector  245  Occ=0.000000D+00  E= 6.793577D+00  Symmetry=a1
              MO Center=  7.4D-12, -3.2D-10, -2.0D+00, r^2= 1.9D+00
   Bfn.  Coefficient  Atom+Function         Bfn.  Coefficient  Atom+Function  
  ----- ------------  ---------------      ----- ------------  ---------------
   183      1.762408  13 F  s               198      1.762408  14 F  s         
     3     -1.218589   1 B  s               182      1.168604  13 F  s         
   197      1.168604  14 F  s               190     -1.063153  13 F  dxx       
   205     -1.063153  14 F  dxx             195     -1.055594  13 F  dzz       
   210     -1.055594  14 F  dzz             193     -1.003007  13 F  dyy       


------------------------------------------------------------
EAF file 0: "./BODIPY.aoints.0" size=1573388288 bytes
------------------------------------------------------------
               write      read    awrite     aread      wait
               -----      ----    ------     -----      ----
     calls:     3001        11         0     33000     33000
   data(b): 1.57e+09  5.77e+06  0.00e+00  1.73e+10
   time(s): 0.00e+00  0.00e+00  0.00e+00  0.00e+00  0.00e+00
rate(mb/s): 0.00e+00  0.00e+00
------------------------------------------------------------


 center of mass
 --------------
 x =   0.00000000 y =   0.00000000 z =  -0.11233734

 moments of inertia (a.u.)
 ------------------
        1410.091033117280           0.000000000000          -0.000000000000
           0.000000000000        3872.666410447725           0.000000000000
          -0.000000000000           0.000000000000        2815.092327830894

     Multipole analysis of the density
     ---------------------------------

     L   x y z        total         alpha         beta         nuclear
     -   - - -        -----         -----         ----         -------
     0   0 0 0      0.000000    -49.000000    -49.000000     98.000000

     1   1 0 0     -0.000000     -0.000000     -0.000000      0.000000
     1   0 1 0     -0.000000     -0.000000     -0.000000      0.000000
     1   0 0 1      1.956072      1.269754      1.269754     -0.583437

     2   2 0 0    -44.589355   -745.865508   -745.865508   1447.141661
     2   1 1 0      0.000000      0.000000      0.000000      0.000000
     2   1 0 1      0.000000      0.000000      0.000000      0.000000
     2   0 2 0    -63.584684    -73.541286    -73.541286     83.497888
     2   0 1 1      0.000000      0.000000      0.000000      0.000000
     2   0 0 2    -55.019029   -353.223547   -353.223547    651.428065


 Parallel integral file used    3001 records with       0 large values

                                NWChem TDDFT Module
                                -------------------


                         OLED TADF Properties Calculation


            General Information
            -------------------
           No. of orbitals :     490
            Alpha orbitals :     245
             Beta orbitals :     245
        Alpha frozen cores :       0
         Beta frozen cores :       0
     Alpha frozen virtuals :       0
      Beta frozen virtuals :       0
         Spin multiplicity :       1
    Number of AO functions :     245
        Use of symmetry is : off
      Symmetry adaption is : on 
         Schwarz screening :  0.10D-07

              XC Information
              --------------
                  B3LYP Method XC Potential
              Hartree-Fock (Exact) Exchange   0.20          
                 Slater Exchange Functional   0.80 local    
             Becke 1988 Exchange Functional   0.72 non-local
       Lee-Yang-Parr Correlation Functional   0.81          
           VWN I RPA Correlation Functional   0.19 local    

             TDDFT Information
             -----------------
          Calculation type : TDDFT             
         Wavefunction type : Restricted singlets & triplets
          No. of electrons :      98
           Alpha electrons :      49
            Beta electrons :      49
              No. of roots :       5
          Max subspacesize :    5000
            Max iterations :     100
               Target root :       1
           Target symmetry : none
      Symmetry restriction : off
                 Algorithm : Optimal
        Davidson threshold :  0.10D-03

 solvent parameters
 solvname_short: toluene 
 solvname_long:  toluene                            
 dielec:        2.3741
 dielecinf:     2.2383

 solvent accessible surface
 --------------------------

 ---------- ATOMIC COORDINATES (A.U.) ------------ VDWR(ANG.) --
     1    0.00000000    0.00000000   -2.31613325     2.047
     2   -2.36465194    0.00000000   -0.54135822     1.830
     3   -4.79648383    0.00000000   -1.26722731     2.000
     4   -6.39929599    0.00000000    0.87578123     2.000
     5   -4.83390502    0.00000000    2.99347121     2.000
     6   -2.29989529    0.00000000    2.09473528     2.000
     7    0.00000000    0.00000000    3.37994561     2.000
     8    2.29989529    0.00000000    2.09473528     2.000
     9    2.36465194    0.00000000   -0.54135822     1.830
    10    4.79648383    0.00000000   -1.26722731     2.000
    11    6.39929599    0.00000000    0.87578123     2.000
    12    4.83390502    0.00000000    2.99347121     2.000
    13    0.00000000    2.15378076   -3.81138167     1.720
    14    0.00000000   -2.15378076   -3.81138167     1.720
    15   -5.30904645    0.00000000   -3.26194753     1.300
    16   -8.45599066    0.00000000    0.83480455     1.300
    17   -5.39069685    0.00000000    4.97492887     1.300
    18    0.00000000    0.00000000    5.44474439     1.300
    19    5.30904645    0.00000000   -3.26194753     1.300
    20    8.45599066    0.00000000    0.83480455     1.300
    21    5.39069685    0.00000000    4.97492887     1.300
 number of segments per atom =         32
 number of   points per atom =         32
 atom (   nspa,  nppa )
 ----------------------
    1 (      4,     0 )       0
    2 (      8,     0 )       0
    3 (     14,     0 )       0
    4 (     12,     0 )       0
    5 (     16,     0 )       0
    6 (      8,     0 )       0
    7 (     12,     0 )       0
    8 (      8,     0 )       0
    9 (      8,     0 )       0
   10 (     14,     0 )       0
   11 (     12,     0 )       0
   12 (     16,     0 )       0
   13 (     22,     0 )       0
   14 (     22,     0 )       0
   15 (     14,     0 )       0
   16 (     16,     0 )       0
   17 (     14,     0 )       0
   18 (     16,     0 )       0
   19 (     14,     0 )       0
   20 (     16,     0 )       0
   21 (     14,     0 )       0
 number of -cosmo- surface points =      280
 molecular surface =    218.458 angstrom**2
 molecular volume  =    131.524 angstrom**3
 G(cav/disp)       =      1.952 kcal/mol

            Memory Information
            ------------------
          Available GA space size is          26154375 doubles
          Available MA space size is          26061572 doubles
          Length of a trial vector is         9604
          Algorithm : Incore multiple tensor contraction
          Max subspace size reduced from      5000 to      548
          Estimated peak GA usage is          23789108 doubles
          Estimated peak MA usage is             18000 doubles

    5 smallest eigenvalue differences (eV) 
--------------------------------------------------------
  No. Spin  Occ  Vir  Irrep   E(Occ)    E(Vir)   E(Diff)
--------------------------------------------------------
    1    1   49   50 b1       -0.229    -0.115     3.113
    2    1   48   50 b1       -0.270    -0.115     4.227
    3    1   47   50 a1       -0.277    -0.115     4.411
    4    1   46   50 a1       -0.314    -0.115     5.433
    5    1   45   50 a2       -0.349    -0.115     6.387
--------------------------------------------------------

  Entering Davidson iterations
  Restricted singlet excited states

  Iter   NTrls   NConv    DeltaV     DeltaE      Time   
  ----  ------  ------  ---------  ---------  --------- 
    1      5       0     0.35E+00   0.10+100      282.3
    2     15       0     0.18E+00   0.37E-01      477.6
    3     25       0     0.42E-01   0.56E-02      484.4
    4     35       0     0.13E-01   0.83E-03      483.5
    5     45       0     0.32E-02   0.10E-03      484.3
    6     55       0     0.98E-03   0.56E-05      457.5
    7     63       4     0.29E-03   0.54E-06      373.4
    8     65       5     0.94E-04   0.32E-07      156.9
  ----  ------  ------  ---------  ---------  --------- 
  Convergence criterion met

  Ground state a1       -680.962872283864 a.u.

  ----------------------------------------------------------------------------
  Root   1 singlet b1             0.115892680 a.u.                3.1536 eV 
  ----------------------------------------------------------------------------
     Transition Moments    X  2.16129   Y  0.00000   Z  0.00000
     Transition Moments   XX -0.00000  XY -0.00000  XZ -0.46190
     Transition Moments   YY -0.00000  YZ -0.00000  ZZ -0.00000
     Dipole Oscillator Strength                    0.3609034423
     Electric Quadrupole                           0.0000000018
     Magnetic Dipole                               0.0000036507
     Total Oscillator Strength                     0.3609070948

     Occ.   48  a2  ---  Virt.   50  b2   0.42322 X
     Occ.   48  a2  ---  Virt.   52  b2  -0.06267 X
     Occ.   49  a2  ---  Virt.   50  b2  -0.91314 X
     Occ.   49  a2  ---  Virt.   50  b2   0.16123 Y
  ----------------------------------------------------------------------------
  Root   2 singlet b1             0.134892261 a.u.                3.6706 eV 
  ----------------------------------------------------------------------------
     Transition Moments    X  1.63219   Y -0.00000   Z -0.00000
     Transition Moments   XX -0.00000  XY  0.00000  XZ  2.70328
     Transition Moments   YY  0.00000  YZ -0.00000  ZZ -0.00000
     Dipole Oscillator Strength                    0.2395724328
     Electric Quadrupole                           0.0000000955
     Magnetic Dipole                               0.0000000119
     Total Oscillator Strength                     0.2395725402

     Occ.   47  b2  ---  Virt.   51  a2  -0.05232 X
     Occ.   48  a2  ---  Virt.   50  b2  -0.90265 X
     Occ.   48  a2  ---  Virt.   50  b2   0.05758 Y
     Occ.   48  a2  ---  Virt.   57  b2   0.05234 X
     Occ.   49  a2  ---  Virt.   50  b2  -0.43297 X
     Occ.   49  a2  ---  Virt.   50  b2   0.10574 Y
     Occ.   49  a2  ---  Virt.   52  b2   0.05196 X
  ----------------------------------------------------------------------------
  Root   3 singlet a1             0.138996837 a.u.                3.7823 eV 
  ----------------------------------------------------------------------------
     Transition Moments    X -0.00000   Y -0.00000   Z -0.55724
     Transition Moments   XX -0.51450  XY  0.00000  XZ  0.00000
     Transition Moments   YY  0.02143  YZ -0.00000  ZZ -1.36746
     Dipole Oscillator Strength                    0.0287734069
     Electric Quadrupole                           0.0000000070
     Magnetic Dipole                               0.0000000000
     Total Oscillator Strength                     0.0287734139

     Occ.   47  b2  ---  Virt.   50  b2  -0.99369 X
     Occ.   47  b2  ---  Virt.   57  b2   0.05794 X
     Occ.   48  a2  ---  Virt.   53  a2   0.05065 X
  ----------------------------------------------------------------------------
  Root   4 singlet a1             0.192077533 a.u.                5.2267 eV 
  ----------------------------------------------------------------------------
     Transition Moments    X -0.00000   Y -0.00000   Z -0.53990
     Transition Moments   XX  4.69907  XY  0.00000  XZ  0.00000
     Transition Moments   YY  0.00636  YZ  0.00000  ZZ -2.20442
     Dipole Oscillator Strength                    0.0373263159
     Electric Quadrupole                           0.0000004690
     Magnetic Dipole                               0.0000000000
     Total Oscillator Strength                     0.0373267849

     Occ.   44  b2  ---  Virt.   50  b2  -0.08879 X
     Occ.   46  b2  ---  Virt.   50  b2   0.91957 X
     Occ.   46  b2  ---  Virt.   50  b2  -0.06746 Y
     Occ.   47  b2  ---  Virt.   52  b2   0.07162 X
     Occ.   48  a2  ---  Virt.   51  a2   0.07477 X
     Occ.   48  a2  ---  Virt.   53  a2   0.05565 X
     Occ.   49  a2  ---  Virt.   51  a2   0.35878 X
  ----------------------------------------------------------------------------
  Root   5 singlet a2             0.198565941 a.u.                5.4033 eV 
  ----------------------------------------------------------------------------
     Transition Moments    X  0.00000   Y  0.00000   Z -0.00000
     Transition Moments   XX  0.00000  XY  0.01422  XZ  0.00000
     Transition Moments   YY  0.00000  YZ -0.00000  ZZ  0.00000
     Dipole Oscillator Strength                    0.0000000000
     Electric Quadrupole                           0.0000000000
     Magnetic Dipole                               0.0000002461
     Total Oscillator Strength                     0.0000002461

     Occ.   41  b1  ---  Virt.   50  b2   0.05389 X
     Occ.   45  b1  ---  Virt.   50  b2  -0.99586 X

              Target root =      1
          Target symmetry = none
      Ground state energy =   -680.962872283864
        Excitation energy =      0.115892680433
     Excited state energy =   -680.846979603431

  stored tddft:energy   -680.84697960343124     

    5 smallest eigenvalue differences (eV) 
--------------------------------------------------------
  No. Spin  Occ  Vir  Irrep   E(Occ)    E(Vir)   E(Diff)
--------------------------------------------------------
    1    1   49   50 b1       -0.229    -0.115     3.113
    2    1   48   50 b1       -0.270    -0.115     4.227
    3    1   47   50 a1       -0.277    -0.115     4.411
    4    1   46   50 a1       -0.314    -0.115     5.433
    5    1   45   50 a2       -0.349    -0.115     6.387
--------------------------------------------------------

  Entering Davidson iterations
  Restricted triplet excited states

  Iter   NTrls   NConv    DeltaV     DeltaE      Time   
  ----  ------  ------  ---------  ---------  --------- 
    1      5       0     0.83E-01   0.10+100      255.4
    2     15       0     0.18E-01   0.84E-02      448.6
    3     25       0     0.53E-02   0.39E-03      440.2
    4     35       0     0.73E-01   0.96E-02      445.8
    5     45       1     0.13E-01   0.63E-02      442.7
    6     52       4     0.32E-02   0.12E-03      336.4
    7     54       4     0.97E-03   0.69E-05      155.0
    8     56       4     0.24E-03   0.51E-06      157.6
    9     58       5     0.64E-04   0.32E-07      158.8
  ----  ------  ------  ---------  ---------  --------- 
  Convergence criterion met

  Ground state a1       -680.962872283864 a.u.

  ----------------------------------------------------------------------------
  Root   1 triplet b1             0.058565528 a.u.                1.5936 eV 
  ----------------------------------------------------------------------------
     Transition Moments                    Spin forbidden
     Oscillator Strength                   Spin forbidden

     Occ.   46  b2  ---  Virt.   51  a2   0.06924 X
     Occ.   48  a2  ---  Virt.   50  b2  -0.13861 X
     Occ.   49  a2  ---  Virt.   50  b2  -1.00140 X
     Occ.   49  a2  ---  Virt.   50  b2  -0.16231 Y
  ----------------------------------------------------------------------------
  Root   2 triplet b1             0.100136106 a.u.                2.7248 eV 
  ----------------------------------------------------------------------------
     Transition Moments                    Spin forbidden
     Oscillator Strength                   Spin forbidden

     Occ.   47  b2  ---  Virt.   51  a2  -0.11986 X
     Occ.   47  b2  ---  Virt.   53  a2   0.10045 X
     Occ.   48  a2  ---  Virt.   50  b2   0.97717 X
     Occ.   48  a2  ---  Virt.   50  b2   0.07747 Y
     Occ.   48  a2  ---  Virt.   57  b2   0.06000 X
     Occ.   49  a2  ---  Virt.   50  b2  -0.13798 X
  ----------------------------------------------------------------------------
  Root   3 triplet a1             0.107444702 a.u.                2.9237 eV 
  ----------------------------------------------------------------------------
     Transition Moments                    Spin forbidden
     Oscillator Strength                   Spin forbidden

     Occ.   46  b2  ---  Virt.   50  b2  -0.11167 X
     Occ.   47  b2  ---  Virt.   50  b2  -0.97465 X
     Occ.   47  b2  ---  Virt.   50  b2  -0.07297 Y
     Occ.   47  b2  ---  Virt.   57  b2  -0.06129 X
     Occ.   48  a2  ---  Virt.   51  a2   0.14230 X
     Occ.   48  a2  ---  Virt.   53  a2  -0.10753 X
     Occ.   49  a2  ---  Virt.   51  a2   0.05237 X
  ----------------------------------------------------------------------------
  Root   4 triplet a1             0.129943352 a.u.                3.5359 eV 
  ----------------------------------------------------------------------------
     Transition Moments                    Spin forbidden
     Oscillator Strength                   Spin forbidden

     Occ.   37  a2  ---  Virt.   51  a2   0.05012 X
     Occ.   44  b2  ---  Virt.   50  b2  -0.05725 X
     Occ.   46  b2  ---  Virt.   50  b2  -0.97794 X
     Occ.   46  b2  ---  Virt.   50  b2  -0.10584 Y
     Occ.   46  b2  ---  Virt.   57  b2   0.07949 X
     Occ.   47  b2  ---  Virt.   50  b2   0.12343 X
     Occ.   49  a2  ---  Virt.   51  a2   0.13693 X
  ----------------------------------------------------------------------------
  Root   5 triplet a1             0.178153570 a.u.                4.8478 eV 
  ----------------------------------------------------------------------------
     Transition Moments                    Spin forbidden
     Oscillator Strength                   Spin forbidden

     Occ.   36  b2  ---  Virt.   50  b2   0.05222 X
     Occ.   36  b2  ---  Virt.   57  b2  -0.05689 X
     Occ.   37  a2  ---  Virt.   53  a2   0.05925 X
     Occ.   46  b2  ---  Virt.   50  b2   0.12165 X
     Occ.   46  b2  ---  Virt.   52  b2   0.15669 X
     Occ.   46  b2  ---  Virt.   57  b2  -0.10290 X
     Occ.   47  b2  ---  Virt.   50  b2   0.06251 X
     Occ.   47  b2  ---  Virt.   52  b2  -0.13285 X
     Occ.   48  a2  ---  Virt.   53  a2  -0.11426 X
     Occ.   49  a2  ---  Virt.   51  a2   0.95217 X
     Occ.   49  a2  ---  Virt.   51  a2   0.06687 Y

              Target root =      1
          Target symmetry = none
      Ground state energy =   -680.962872283864
        Excitation energy =      0.058565528104
     Excited state energy =   -680.904306755760

  stored tddft:energy   -680.90430675575988     


                           NWChem TDDFT Gradient Module
                           ----------------------------


 ------------------------------------------------------------------------
 tddft_grad_init:                failed to read isroots                   0
 ------------------------------------------------------------------------
 ------------------------------------------------------------------------
  current input line : 
    72: task tddft optimize
 ------------------------------------------------------------------------
 ------------------------------------------------------------------------
 An error occured in the Runtime Database
 ------------------------------------------------------------------------
 For more information see the NWChem manual at https://github.com/nwchemgit/nwchem/wiki


 For further details see manual section:                                                                                                                                                                                                                                                                
