 argument  1 = BODIPY30.nw



============================== echo of input deck ==============================
# echo input file to output
echo
start BODIPY_TDDFT
title "TDDFT/B3LYP/def2-TZVP Calculations of BODIPY in Toluene with Dispersion Correction"
memory total 16 gb
scratch_dir /tmp

# Charge of the system
charge 0

# XYZ coordinates in Angstrom units (default)
# Automatic symmetry detection enabled (default tol 0.01). Disable with noautosym.
geometry units angstroms autosym 0.1
B -0.00019437583225 -1.16316739355963 -0.00176466041749
N 1.24631725164681 -0.24138805849423 -0.00080783267345
C 2.51739477533339 -0.61997176132243 -0.00075140337776
C 3.35689094927452 0.50356665438456 -0.00082246625734
C 2.54079373059925 1.61117059666300 -0.00120562482099
C 1.20575157674696 1.13778760226353 -0.00108087155394
C 0.00058911568866 1.82086825837058 -0.00124861634612
C -1.20493021235489 1.13842232496486 -0.00080649652061
N -1.24621945325567 -0.24073087404503 -0.00010064286439
C -2.51749640395899 -0.61864315229661 0.00071302235781
C -3.35639906343006 0.50533841214423 0.00057932193959
C -2.53972124748802 1.61251062336190 -0.00048409441898
F -0.00007497888277 -1.95161629895753 1.12633462988970
F -0.00072588381522 -1.94780131847676 -1.13265938071381
H 2.78162898425872 -1.66019437319538 -0.00056421851775
H 4.42858745196628 0.48215630454488 -0.00072457564702
H 2.83148118049264 2.64333386128906 -0.00135193565684
H 0.00087029015745 2.90047753858275 -0.00170385373193
H -2.78227557332534 -1.65872624312978 0.00143771204265
H -4.42810657767131 0.48449521810039 0.00115450061887
H -2.82986760835016 2.64482665500762 -0.00091044163019
end

#basis spherical
# * library def2-svp
#end

basis "ao basis" spherical
 * library def2-tzvp
end
basis "cd basis" # reduces cost from N 4 --> N3
 * library "Weigend Coulomb Fitting"
end

ecp
  Pt library def2-ecp
end

dft
  xc b3lyp
  direct
  iterations 500
  grid xfine
  # Grimme's D3-dispersion correction with Becke-Johnson damping (D3(BJ))
  disp vdw 4
  convergence fast
end

cosmo
  solvent toluene
end

# Options for the geometry optimizer
driver
  # Max 100 optimization steps
  maxiter 100
  # Don't use restart information from a previous run
  clear
end
task dft optimize

# Run property calculation after the geometry optimization to
# create Molden file for plotting molecular orbitals
property
  moldenfile
  molden_norm none
end
task dft property

# Calculate numerical frequencies
# With COSMO, only numerical frequencies are possible
#task dft freq numerical

tddft
 nroots 5
end
task tddft energy
================================================================================


                                         
                                         


             Northwest Computational Chemistry Package (NWChem) 7.0.2
             --------------------------------------------------------


                    Environmental Molecular Sciences Laboratory
                       Pacific Northwest National Laboratory
                                Richland, WA 99352

                              Copyright (c) 1994-2020
                       Pacific Northwest National Laboratory
                            Battelle Memorial Institute

             NWChem is an open-source computational chemistry package
                        distributed under the terms of the
                      Educational Community License (ECL) 2.0
             A copy of the license is included with this distribution
                              in the LICENSE.TXT file

                                  ACKNOWLEDGMENT
                                  --------------

            This software and its documentation were developed at the
            EMSL at Pacific Northwest National Laboratory, a multiprogram
            national laboratory, operated for the U.S. Department of Energy
            by Battelle under Contract Number DE-AC05-76RL01830. Support
            for this work was provided by the Department of Energy Office
            of Biological and Environmental Research, Office of Basic
            Energy Sciences, and the Office of Advanced Scientific Computing.


           Job information
           ---------------

    hostname        = taamangtchu-Aspire-A515-45
    program         = nwchem
    date            = Sun Jul 21 09:27:47 2024

    compiled        = Sat_Apr_09_17:12:10_2022
    source          = /build/nwchem-f1f4gx/nwchem-7.0.2/build-openmpi
    nwchem branch   = 7.0.2
    nwchem revision = N/A
    ga revision     = 5.8.1
    use scalapack   = T
    input           = BODIPY30.nw
    prefix          = BODIPY_TDDFT.
    data base       = ./BODIPY_TDDFT.db
    status          = startup
    nproc           =        1
    time left       =     -1s



           Memory information
           ------------------

    heap     =  536870906 doubles =   4096.0 Mbytes
    stack    =  536870911 doubles =   4096.0 Mbytes
    global   = 1073741824 doubles =   8192.0 Mbytes (distinct from heap & stack)
    total    = 2147483641 doubles =  16384.0 Mbytes
    verify   = yes
    hardfail = no 


           Directory information
           ---------------------

  0 permanent = .
  0 scratch   = /tmp




                                NWChem Input Module
                                -------------------


 TDDFT/B3LYP/def2-TZVP Calculations of BODIPY in Toluene with Dispersion Correction
 --------------------------------------------------------------------------------

 Scaling coordinates for geometry "geometry" by  1.889725989
 (inverse scale =  0.529177249)

 C2V symmetry detected

          ------
          auto-z
          ------
  no constraints, skipping    0.0000000000000000     
  no constraints, skipping    0.0000000000000000     


                             Geometry "geometry" -> ""
                             -------------------------

 Output coordinates in angstroms (scale by  1.889725989 to convert to a.u.)

  No.       Tag          Charge          X              Y              Z
 ---- ---------------- ---------- -------------- -------------- --------------
    1 B                    5.0000     0.00000000     0.00000000    -1.20497613
    2 N                    7.0000    -1.24626844     0.00000000    -0.28286786
    3 C                    6.0000    -2.51744577     0.00000000    -0.66111573
    4 C                    6.0000    -3.35664520     0.00000000     0.46264423
    5 C                    6.0000    -2.54025760     0.00000000     1.57003212
    6 C                    6.0000    -1.20534094     0.00000000     1.09629644
    7 C                    6.0000     0.00000000     0.00000000     1.77905966
    8 C                    6.0000     1.20534094     0.00000000     1.09629644
    9 N                    7.0000     1.24626844     0.00000000    -0.28286786
   10 C                    6.0000     2.51744577     0.00000000    -0.66111573
   11 C                    6.0000     3.35664520     0.00000000     0.46264423
   12 C                    6.0000     2.54025760     0.00000000     1.57003212
   13 F                    9.0000     0.00000000     1.12949751    -1.99151791
   14 F                    9.0000     0.00000000    -1.12949751    -1.99151791
   15 H                    1.0000    -2.78195252     0.00000000    -1.70126847
   16 H                    1.0000    -4.42834727     0.00000000     0.44151755
   17 H                    1.0000    -2.83067448     0.00000000     2.60227169
   18 H                    1.0000     0.00000000     0.00000000     2.85866882
   19 H                    1.0000     2.78195252     0.00000000    -1.70126847
   20 H                    1.0000     4.42834727     0.00000000     0.44151755
   21 H                    1.0000     2.83067448     0.00000000     2.60227169

      Atomic Mass 
      ----------- 

      B                 11.009310
      N                 14.003070
      C                 12.000000
      F                 18.998400
      H                  1.007825


 Effective nuclear repulsion energy (a.u.)     866.7103892197

            Nuclear Dipole moment (a.u.) 
            ----------------------------
        X                 Y               Z
 ---------------- ---------------- ----------------
    -0.0000000000     0.0000000000    -0.0000000000

      Symmetry information
      --------------------

 Group name             C2v       
 Group number             16
 Group order               4
 No. of unique centers    12

      Symmetry unique atoms

     1    2    3    4    5    6    7   13   15   16   17   18



                                Z-matrix (autoz)
                                -------- 

 Units are Angstrom for bonds and degrees for angles

      Type          Name      I     J     K     L     M      Value
      ----------- --------  ----- ----- ----- ----- ----- ----------
    1 Stretch                  1     2                       1.55031
    2 Stretch                  1     9                       1.55031
    3 Stretch                  1    13                       1.37638
    4 Stretch                  1    14                       1.37638
    5 Stretch                  2     3                       1.32626
    6 Stretch                  2     6                       1.37977
    7 Stretch                  3     4                       1.40253
    8 Stretch                  3    15                       1.07326
    9 Stretch                  4     5                       1.37579
   10 Stretch                  4    16                       1.07191
   11 Stretch                  5     6                       1.41648
   12 Stretch                  5    17                       1.07232
   13 Stretch                  6     7                       1.38528
   14 Stretch                  7     8                       1.38528
   15 Stretch                  7    18                       1.07961
   16 Stretch                  8     9                       1.37977
   17 Stretch                  8    12                       1.41648
   18 Stretch                  9    10                       1.32626
   19 Stretch                 10    11                       1.40253
   20 Stretch                 10    19                       1.07326
   21 Stretch                 11    12                       1.37579
   22 Stretch                 11    20                       1.07191
   23 Stretch                 12    21                       1.07232
   24 Bend                     1     2     3               126.93168
   25 Bend                     1     2     6               124.79778
   26 Bend                     1     9     8               124.79778
   27 Bend                     1     9    10               126.93168
   28 Bend                     2     1     9               107.00486
   29 Bend                     2     1    13               109.87059
   30 Bend                     2     1    14               109.87059
   31 Bend                     2     3     4               110.18082
   32 Bend                     2     3    15               120.83842
   33 Bend                     2     6     5               107.83899
   34 Bend                     2     6     7               121.22909
   35 Bend                     3     2     6               108.27054
   36 Bend                     3     4     5               106.85008
   37 Bend                     3     4    16               125.62224
   38 Bend                     4     3    15               128.98075
   39 Bend                     4     5     6               106.85958
   40 Bend                     4     5    17               127.88789
   41 Bend                     5     4    16               127.52769
   42 Bend                     5     6     7               130.93192
   43 Bend                     6     5    17               125.25253
   44 Bend                     6     7     8               120.94139
   45 Bend                     6     7    18               119.52931
   46 Bend                     7     8     9               121.22909
   47 Bend                     7     8    12               130.93192
   48 Bend                     8     7    18               119.52931
   49 Bend                     8     9    10               108.27054
   50 Bend                     8    12    11               106.85958
   51 Bend                     8    12    21               125.25253
   52 Bend                     9     1    13               109.87059
   53 Bend                     9     1    14               109.87059
   54 Bend                     9     8    12               107.83899
   55 Bend                     9    10    11               110.18082
   56 Bend                     9    10    19               120.83842
   57 Bend                    10    11    12               106.85008
   58 Bend                    10    11    20               125.62224
   59 Bend                    11    10    19               128.98075
   60 Bend                    11    12    21               127.88789
   61 Bend                    12    11    20               127.52769
   62 Bend                    13     1    14               110.29605
   63 Torsion                  1     2     3     4         180.00000
   64 Torsion                  1     2     3    15           0.00000
   65 Torsion                  1     2     6     5         180.00000
   66 Torsion                  1     2     6     7           0.00000
   67 Torsion                  1     9     8     7           0.00000
   68 Torsion                  1     9     8    12         180.00000
   69 Torsion                  1     9    10    11         180.00000
   70 Torsion                  1     9    10    19           0.00000
   71 Torsion                  2     1     9     8           0.00000
   72 Torsion                  2     1     9    10         180.00000
   73 Torsion                  2     3     4     5           0.00000
   74 Torsion                  2     3     4    16         180.00000
   75 Torsion                  2     6     5     4          -0.00000
   76 Torsion                  2     6     5    17         180.00000
   77 Torsion                  2     6     7     8           0.00000
   78 Torsion                  2     6     7    18         180.00000
   79 Torsion                  3     2     1     9         180.00000
   80 Torsion                  3     2     1    13          60.76012
   81 Torsion                  3     2     1    14         -60.76012
   82 Torsion                  3     2     6     5           0.00000
   83 Torsion                  3     2     6     7         180.00000
   84 Torsion                  3     4     5     6           0.00000
   85 Torsion                  3     4     5    17         180.00000
   86 Torsion                  4     3     2     6           0.00000
   87 Torsion                  4     5     6     7         180.00000
   88 Torsion                  5     4     3    15         180.00000
   89 Torsion                  5     6     7     8         180.00000
   90 Torsion                  5     6     7    18           0.00000
   91 Torsion                  6     2     1     9          -0.00000
   92 Torsion                  6     2     1    13        -119.23988
   93 Torsion                  6     2     1    14         119.23988
   94 Torsion                  6     2     3    15         180.00000
   95 Torsion                  6     5     4    16         180.00000
   96 Torsion                  6     7     8     9           0.00000
   97 Torsion                  6     7     8    12         180.00000
   98 Torsion                  7     6     5    17           0.00000
   99 Torsion                  7     8     9    10         180.00000
  100 Torsion                  7     8    12    11         180.00000
  101 Torsion                  7     8    12    21           0.00000
  102 Torsion                  8     9     1    13         119.23988
  103 Torsion                  8     9     1    14        -119.23988
  104 Torsion                  8     9    10    11           0.00000
  105 Torsion                  8     9    10    19         180.00000
  106 Torsion                  8    12    11    10           0.00000
  107 Torsion                  8    12    11    20         180.00000
  108 Torsion                  9     8     7    18         180.00000
  109 Torsion                  9     8    12    11           0.00000
  110 Torsion                  9     8    12    21         180.00000
  111 Torsion                  9    10    11    12           0.00000
  112 Torsion                  9    10    11    20         180.00000
  113 Torsion                 10     9     1    13         -60.76012
  114 Torsion                 10     9     1    14          60.76012
  115 Torsion                 10     9     8    12           0.00000
  116 Torsion                 10    11    12    21         180.00000
  117 Torsion                 12     8     7    18           0.00000
  118 Torsion                 12    11    10    19         180.00000
  119 Torsion                 15     3     4    16          -0.00000
  120 Torsion                 16     4     5    17           0.00000
  121 Torsion                 19    10    11    20           0.00000
  122 Torsion                 20    11    12    21           0.00000


            XYZ format geometry
            -------------------
    21
 geometry
 B                     0.00000000     0.00000000    -1.20497613
 N                    -1.24626844     0.00000000    -0.28286786
 C                    -2.51744577     0.00000000    -0.66111573
 C                    -3.35664520     0.00000000     0.46264423
 C                    -2.54025760     0.00000000     1.57003212
 C                    -1.20534094     0.00000000     1.09629644
 C                     0.00000000     0.00000000     1.77905966
 C                     1.20534094     0.00000000     1.09629644
 N                     1.24626844     0.00000000    -0.28286786
 C                     2.51744577     0.00000000    -0.66111573
 C                     3.35664520     0.00000000     0.46264423
 C                     2.54025760     0.00000000     1.57003212
 F                     0.00000000     1.12949751    -1.99151791
 F                     0.00000000    -1.12949751    -1.99151791
 H                    -2.78195252     0.00000000    -1.70126847
 H                    -4.42834727     0.00000000     0.44151755
 H                    -2.83067448     0.00000000     2.60227169
 H                     0.00000000     0.00000000     2.85866882
 H                     2.78195252     0.00000000    -1.70126847
 H                     4.42834727     0.00000000     0.44151755
 H                     2.83067448     0.00000000     2.60227169

 ==============================================================================
                                internuclear distances
 ------------------------------------------------------------------------------
       center one      |      center two      | atomic units |  angstroms
 ------------------------------------------------------------------------------
    2 N                |   1 B                |     2.92967  |     1.55031
    3 C                |   2 N                |     2.50627  |     1.32626
    4 C                |   3 C                |     2.65040  |     1.40253
    5 C                |   4 C                |     2.59987  |     1.37579
    6 C                |   2 N                |     2.60739  |     1.37977
    6 C                |   5 C                |     2.67677  |     1.41648
    7 C                |   6 C                |     2.61781  |     1.38528
    8 C                |   7 C                |     2.61781  |     1.38528
    9 N                |   1 B                |     2.92967  |     1.55031
    9 N                |   8 C                |     2.60739  |     1.37977
   10 C                |   9 N                |     2.50627  |     1.32626
   11 C                |  10 C                |     2.65040  |     1.40253
   12 C                |   8 C                |     2.67677  |     1.41648
   12 C                |  11 C                |     2.59987  |     1.37579
   13 F                |   1 B                |     2.60097  |     1.37638
   14 F                |   1 B                |     2.60097  |     1.37638
   15 H                |   3 C                |     2.02816  |     1.07326
   16 H                |   4 C                |     2.02562  |     1.07191
   17 H                |   5 C                |     2.02638  |     1.07232
   18 H                |   7 C                |     2.04017  |     1.07961
   19 H                |  10 C                |     2.02816  |     1.07326
   20 H                |  11 C                |     2.02562  |     1.07191
   21 H                |  12 C                |     2.02638  |     1.07232
 ------------------------------------------------------------------------------
                         number of included internuclear distances:         23
 ==============================================================================



 ==============================================================================
                                 internuclear angles
 ------------------------------------------------------------------------------
        center 1       |       center 2       |       center 3       |  degrees
 ------------------------------------------------------------------------------
    2 N                |   1 B                |   9 N                |   107.00
    2 N                |   1 B                |  13 F                |   109.87
    2 N                |   1 B                |  14 F                |   109.87
    9 N                |   1 B                |  13 F                |   109.87
    9 N                |   1 B                |  14 F                |   109.87
   13 F                |   1 B                |  14 F                |   110.30
    1 B                |   2 N                |   3 C                |   126.93
    1 B                |   2 N                |   6 C                |   124.80
    3 C                |   2 N                |   6 C                |   108.27
    2 N                |   3 C                |   4 C                |   110.18
    2 N                |   3 C                |  15 H                |   120.84
    4 C                |   3 C                |  15 H                |   128.98
    3 C                |   4 C                |   5 C                |   106.85
    3 C                |   4 C                |  16 H                |   125.62
    5 C                |   4 C                |  16 H                |   127.53
    4 C                |   5 C                |   6 C                |   106.86
    4 C                |   5 C                |  17 H                |   127.89
    6 C                |   5 C                |  17 H                |   125.25
    2 N                |   6 C                |   5 C                |   107.84
    2 N                |   6 C                |   7 C                |   121.23
    5 C                |   6 C                |   7 C                |   130.93
    6 C                |   7 C                |   8 C                |   120.94
    6 C                |   7 C                |  18 H                |   119.53
    8 C                |   7 C                |  18 H                |   119.53
    7 C                |   8 C                |   9 N                |   121.23
    7 C                |   8 C                |  12 C                |   130.93
    9 N                |   8 C                |  12 C                |   107.84
    1 B                |   9 N                |   8 C                |   124.80
    1 B                |   9 N                |  10 C                |   126.93
    8 C                |   9 N                |  10 C                |   108.27
    9 N                |  10 C                |  11 C                |   110.18
    9 N                |  10 C                |  19 H                |   120.84
   11 C                |  10 C                |  19 H                |   128.98
   10 C                |  11 C                |  12 C                |   106.85
   10 C                |  11 C                |  20 H                |   125.62
   12 C                |  11 C                |  20 H                |   127.53
    8 C                |  12 C                |  11 C                |   106.86
    8 C                |  12 C                |  21 H                |   125.25
   11 C                |  12 C                |  21 H                |   127.89
 ------------------------------------------------------------------------------
                            number of included internuclear angles:         39
 ==============================================================================





 Summary of "ao basis" -> "" (spherical)
 ------------------------------------------------------------------------------
       Tag                 Description            Shells   Functions and Types
 ---------------- ------------------------------  ------  ---------------------
 *                         def2-tzvp                  on all atoms 




 Summary of "cd basis" -> "" (cartesian)
 ------------------------------------------------------------------------------
       Tag                 Description            Shells   Functions and Types
 ---------------- ------------------------------  ------  ---------------------
 *                  Weigend Coulomb Fitting           on all atoms 


                 ECP       "ecp basis" -> "" (cartesian)
                -----
  Pt (Platinum) Replaces    60 electrons
  --------------------------------------
             Channel    R-exponent     Exponent     Coefficients
         ------------ ---------------------------------------------------------
  1 U L       Both         2.00        3.309569      24.314376

  2 U-s       Both         2.00       13.428651     579.223861
  2 U-s       Both         2.00        6.714326      29.669491
  2 U-s       Both         2.00        3.309569     -24.314376

  3 U-p       Both         2.00       10.365944     280.860774
  3 U-p       Both         2.00        5.182972      26.745382
  3 U-p       Both         2.00        3.309569     -24.314376

  4 U-d       Both         2.00        7.600479     120.396444
  4 U-d       Both         2.00        3.800240      15.810921
  4 U-d       Both         2.00        3.309569     -24.314376


  Deleted DRIVER restart files 



                           NWChem Geometry Optimization
                           ----------------------------


  no constraints, skipping    0.0000000000000000     
 maximum gradient threshold         (gmax) =   0.000450
 rms gradient threshold             (grms) =   0.000300
 maximum cartesian step threshold   (xmax) =   0.001800
 rms cartesian step threshold       (xrms) =   0.001200
 fixed trust radius                (trust) =   0.300000
 maximum step size to saddle      (sadstp) =   0.100000
 energy precision                  (eprec) =   5.0D-06
 maximum number of steps          (nptopt) =  100
 initial hessian option           (inhess) =    0
 line search option               (linopt) =    1
 hessian update option            (modupd) =    1
 saddle point option              (modsad) =    0
 initial eigen-mode to follow     (moddir) =    0
 initial variable to follow       (vardir) =    0
 follow first negative mode     (firstneg) =    T
 apply conjugacy                    (opcg) =    F
 source of zmatrix                         =   autoz   


          -------------------
          Energy Minimization
          -------------------


 Names of Z-matrix variables 
    1              2              3              4              5         
    6              7              8              9             10         
   11             12             13             14             15         
   16             17             18             19             20         
   21             22             23             24             25         
   26             27             28             29             30         
   31             32             33             34             35         
   36             37             38             39             40         
   41             42             43             44             45         
   46             47             48             49             50         
   51             52             53             54             55         
   56             57             58             59             60         
   61             62             63             64             65         
   66             67             68             69             70         
   71             72             73             74             75         
   76             77             78             79             80         
   81             82             83             84             85         
   86             87             88             89             90         
   91             92             93             94             95         
   96             97             98             99            100         
  101            102            103            104            105         
  106            107            108            109            110         
  111            112            113            114            115         
  116            117            118            119            120         
  121            122         

 Variables with the same non-blank name are constrained to be equal


 Using diagonal initial Hessian 
 Scaling for Hessian diagonals: bonds = 1.00  angles = 0.25  torsions = 0.10

          --------
          Step   0
          --------


                         Geometry "geometry" -> "geometry"
                         ---------------------------------

 Output coordinates in angstroms (scale by  1.889725989 to convert to a.u.)

  No.       Tag          Charge          X              Y              Z
 ---- ---------------- ---------- -------------- -------------- --------------
    1 B                    5.0000     0.00000000     0.00000000    -1.20497613
    2 N                    7.0000    -1.24626844     0.00000000    -0.28286786
    3 C                    6.0000    -2.51744577     0.00000000    -0.66111573
    4 C                    6.0000    -3.35664520     0.00000000     0.46264423
    5 C                    6.0000    -2.54025760     0.00000000     1.57003212
    6 C                    6.0000    -1.20534094     0.00000000     1.09629644
    7 C                    6.0000     0.00000000     0.00000000     1.77905966
    8 C                    6.0000     1.20534094     0.00000000     1.09629644
    9 N                    7.0000     1.24626844     0.00000000    -0.28286786
   10 C                    6.0000     2.51744577     0.00000000    -0.66111573
   11 C                    6.0000     3.35664520     0.00000000     0.46264423
   12 C                    6.0000     2.54025760     0.00000000     1.57003212
   13 F                    9.0000     0.00000000     1.12949751    -1.99151791
   14 F                    9.0000     0.00000000    -1.12949751    -1.99151791
   15 H                    1.0000    -2.78195252     0.00000000    -1.70126847
   16 H                    1.0000    -4.42834727     0.00000000     0.44151755
   17 H                    1.0000    -2.83067448     0.00000000     2.60227169
   18 H                    1.0000     0.00000000     0.00000000     2.85866882
   19 H                    1.0000     2.78195252     0.00000000    -1.70126847
   20 H                    1.0000     4.42834727     0.00000000     0.44151755
   21 H                    1.0000     2.83067448     0.00000000     2.60227169

      Atomic Mass 
      ----------- 

      B                 11.009310
      N                 14.003070
      C                 12.000000
      F                 18.998400
      H                  1.007825


 Effective nuclear repulsion energy (a.u.)     866.7103892197

            Nuclear Dipole moment (a.u.) 
            ----------------------------
        X                 Y               Z
 ---------------- ---------------- ----------------
    -0.0000000000     0.0000000000    -0.0000000000

      Symmetry information
      --------------------

 Group name             C2v       
 Group number             16
 Group order               4
 No. of unique centers    12

      Symmetry unique atoms

     1    2    3    4    5    6    7   13   15   16   17   18


                                 NWChem DFT Module
                                 -----------------


 TDDFT/B3LYP/def2-TZVP Calculations of BODIPY in Toluene with Dispersion Correction


                      Basis "ao basis" -> "ao basis" (spherical)
                      -----
  B (Boron)
  ---------
            Exponent  Coefficients 
       -------------- ---------------------------------------------------------
  1 S  8.56486607E+03  0.000228
  1 S  1.28415163E+03  0.001768
  1 S  2.92278716E+02  0.009141
  1 S  8.27754692E+01  0.036343
  1 S  2.70179393E+01  0.110635
  1 S  9.81496197E+00  0.233673

  2 S  3.93185591E+00  0.418188
  2 S  1.65955997E+00  0.223255

  3 S  3.57629652E-01  1.000000

  4 S  1.42462775E-01  1.000000

  5 S  6.05605948E-02  1.000000

  6 P  2.24538758E+01  0.005027
  6 P  5.10450583E+00  0.032802
  6 P  1.49860813E+00  0.131512
  6 P  5.09278313E-01  0.331972

  7 P  1.81470778E-01  1.000000

  8 P  6.46218939E-02  1.000000

  9 D  6.61000000E-01  1.000000

 10 D  1.99000000E-01  1.000000

 11 F  4.90000000E-01  1.000000

  N (Nitrogen)
  ------------
            Exponent  Coefficients 
       -------------- ---------------------------------------------------------
  1 S  1.97308006E+04  0.000219
  1 S  2.95789587E+03  0.001696
  1 S  6.73221336E+02  0.008795
  1 S  1.90682495E+02  0.035359
  1 S  6.22954419E+01  0.110958
  1 S  2.26541612E+01  0.249830

  2 S  8.97914774E+00  0.406239
  2 S  3.68630024E+00  0.243382

  3 S  8.46600768E-01  1.000000

  4 S  3.36471338E-01  1.000000

  5 S  1.36476537E-01  1.000000

  6 P  4.92003805E+01  0.005555
  6 P  1.13467905E+01  0.038052
  6 P  3.42739724E+00  0.149537
  6 P  1.17855251E+00  0.349493

  7 P  4.16422050E-01  1.000000

  8 P  1.42608260E-01  1.000000

  9 D  1.65400000E+00  1.000000

 10 D  4.69000000E-01  1.000000

 11 F  1.09300000E+00  1.000000

  C (Carbon)
  ----------
            Exponent  Coefficients 
       -------------- ---------------------------------------------------------
  1 S  1.35753497E+04  0.000222
  1 S  2.03523337E+03  0.001723
  1 S  4.63225624E+02  0.008926
  1 S  1.31200196E+02  0.035728
  1 S  4.28530159E+01  0.110763
  1 S  1.55841858E+01  0.242956

  2 S  6.20671385E+00  0.414403
  2 S  2.57648965E+00  0.237450

  3 S  5.76963394E-01  1.000000

  4 S  2.29728314E-01  1.000000

  5 S  9.51644400E-02  1.000000

  6 P  3.46972322E+01  0.005333
  6 P  7.95826228E+00  0.035864
  6 P  2.37808269E+00  0.142159
  6 P  8.14332082E-01  0.342705

  7 P  2.88875473E-01  1.000000

  8 P  1.00568237E-01  1.000000

  9 D  1.09700000E+00  1.000000

 10 D  3.18000000E-01  1.000000

 11 F  7.61000000E-01  1.000000

  F (Fluorine)
  ------------
            Exponent  Coefficients 
       -------------- ---------------------------------------------------------
  1 S  3.54791004E+04  0.000215
  1 S  5.31847290E+03  0.001670
  1 S  1.21048110E+03  0.008673
  1 S  3.42855181E+02  0.035050
  1 S  1.12019432E+02  0.111653
  1 S  4.07147402E+01  0.259885

  2 S  1.60396781E+01  0.394230
  2 S  6.50381867E+00  0.249982

  3 S  1.54404775E+00  1.000000

  4 S  6.12234529E-01  1.000000

  5 S  2.40279797E-01  1.000000

  6 P  8.02339005E+01  0.006369
  6 P  1.85940107E+01  0.044303
  6 P  5.68679027E+00  0.168672
  6 P  1.95110063E+00  0.361663

  7 P  6.69702113E-01  1.000000

  8 P  2.16513004E-01  1.000000

  9 D  3.10700000E+00  1.000000

 10 D  8.55000000E-01  1.000000

 11 F  1.91700000E+00  1.000000

  H (Hydrogen)
  ------------
            Exponent  Coefficients 
       -------------- ---------------------------------------------------------
  1 S  3.40613410E+01  0.006025
  1 S  5.12357460E+00  0.045021
  1 S  1.16466260E+00  0.201897

  2 S  3.27230410E-01  1.000000

  3 S  1.03072410E-01  1.000000

  4 P  8.00000000E-01  1.000000



 Summary of "ao basis" -> "ao basis" (spherical)
 ------------------------------------------------------------------------------
       Tag                 Description            Shells   Functions and Types
 ---------------- ------------------------------  ------  ---------------------
 B                         def2-tzvp                11       31   5s3p2d1f
 N                         def2-tzvp                11       31   5s3p2d1f
 C                         def2-tzvp                11       31   5s3p2d1f
 F                         def2-tzvp                11       31   5s3p2d1f
 H                         def2-tzvp                 4        6   3s1p


                      Basis "cd basis" -> "cd basis" (cartesian)
                      -----
  B (Boron)
  ---------
            Exponent  Coefficients 
       -------------- ---------------------------------------------------------
  1 S  1.32220167E+03  0.054283
  1 S  4.58237065E+02  0.116715
  1 S  1.68002364E+02  0.402023
  1 S  6.49577690E+01  0.937794
  1 S  2.63871856E+01  1.586909
  1 S  1.12108611E+01  1.356648
  1 S  4.95544600E+00  0.319902

  2 S  2.26528250E+00  1.000000

  3 S  1.06380860E+00  1.000000

  4 S  5.09518700E-01  1.000000

  5 S  2.46985900E-01  1.000000

  6 S  1.20208900E-01  1.000000

  7 P  9.35607360E+00 -0.013012
  7 P  3.97431310E+00 -0.011401

  8 P  1.66451470E+00  1.000000

  9 P  6.91303500E-01  1.000000

 10 P  2.86313500E-01  1.000000

 11 D  2.11203130E+00  0.022807
 11 D  7.78076900E-01  0.040526

 12 D  3.27710100E-01  1.000000

 13 D  1.44946500E-01  1.000000

 14 F  1.05827180E+00  0.008750
 14 F  4.01000000E-01  0.003615

 15 G  6.51430000E-01  1.000000

  N (Nitrogen)
  ------------
            Exponent  Coefficients 
       -------------- ---------------------------------------------------------
  1 S  2.54294018E+03  0.090467
  1 S  1.02954729E+03  0.145568
  1 S  4.24905355E+02  0.459409
  1 S  1.78457371E+02  1.139286
  1 S  7.61362742E+01  2.179589
  1 S  3.29338653E+01  2.760431
  1 S  1.44155436E+01  1.283745

  2 S  6.37188910E+00  1.000000

  3 S  2.83817420E+00  1.000000

  4 S  1.27117930E+00  1.000000

  5 S  5.71240700E-01  1.000000

  6 S  2.56988700E-01  1.000000

  7 P  1.78975990E+01 -0.033066
  7 P  6.53463190E+00  0.004158

  8 P  2.35236450E+00  1.000000

  9 P  8.39737700E-01  1.000000

 10 P  2.98933500E-01  1.000000

 11 D  7.69098700E+00  0.003582
 11 D  2.30449720E+00  0.018040

 12 D  8.40398700E-01  1.000000

 13 D  3.30379700E-01  1.000000

 14 F  2.33310760E+00  0.006725
 14 F  8.44613700E-01  0.005443

 15 G  1.40377000E+00  1.000000

  C (Carbon)
  ----------
            Exponent  Coefficients 
       -------------- ---------------------------------------------------------
  1 S  1.86109163E+03  0.074417
  1 S  6.42993976E+02  0.165396
  1 S  2.35110573E+02  0.557648
  1 S  9.07028894E+01  1.310830
  1 S  3.67794552E+01  2.169468
  1 S  1.56046273E+01  1.766885
  1 S  6.89072940E+00  0.293077

  2 S  3.14788500E+00  1.000000

  3 S  1.47772870E+00  1.000000

  4 S  7.07646600E-01  1.000000

  5 S  3.43012200E-01  1.000000

  6 S  1.66945300E-01  1.000000

  7 P  1.35472892E+01 -0.020648
  7 P  5.46694190E+00 -0.011528

  8 P  2.17517210E+00  1.000000

  9 P  8.58219400E-01  1.000000

 10 P  3.37672000E-01  1.000000

 11 D  5.92872530E+00 -0.022595
 11 D  1.98092090E+00 -0.047683

 12 D  8.05541700E-01  1.000000

 13 D  3.53124400E-01  1.000000

 14 F  1.67556260E+00  0.008880
 14 F  5.99753600E-01  0.006990

 15 G  1.00246000E+00  1.000000

  F (Fluorine)
  ------------
            Exponent  Coefficients 
       -------------- ---------------------------------------------------------
  1 S  3.51492015E+03  0.180584
  1 S  1.23124588E+03  0.367608
  1 S  4.54136734E+02  1.270788
  1 S  1.75837626E+02  2.827416
  1 S  7.12081775E+01  4.358823
  1 S  3.00316883E+01  2.718099
  1 S  1.31259023E+01 -0.080473

  2 S  5.91268610E+00  1.000000

  3 S  2.72844310E+00  1.000000

  4 S  1.28139930E+00  1.000000

  5 S  6.08279300E-01  1.000000

  6 S  2.89789400E-01  1.000000

  7 P  4.93740409E+01 -0.034633
  7 P  1.34874956E+01 -0.009607

  8 P  3.96649000E+00  1.000000

  9 P  1.22266290E+00  1.000000

 10 P  3.83031700E-01  1.000000

 11 D  2.99719140E+01 -0.011332
 11 D  6.78609150E+00 -0.046764

 12 D  1.81373130E+00  1.000000

 13 D  5.15784000E-01  1.000000

 14 F  2.83018770E+00  1.000000
 14 F  9.15596200E-01  1.000000

 15 G  1.60975000E+00  1.000000

  H (Hydrogen)
  ------------
            Exponent  Coefficients 
       -------------- ---------------------------------------------------------
  1 S  1.56752927E+01  0.018689
  1 S  3.60635780E+00  0.063167
  1 S  1.20800160E+00  0.120461

  2 S  4.72679400E-01  1.000000

  3 S  2.01810000E-01  1.000000

  4 P  2.02813650E+00  1.000000
  4 P  5.35873000E-01  1.000000

  5 D  2.21651240E+00  1.000000



 Summary of "cd basis" -> "cd basis" (cartesian)
 ------------------------------------------------------------------------------
       Tag                 Description            Shells   Functions and Types
 ---------------- ------------------------------  ------  ---------------------
 B                  Weigend Coulomb Fitting         15       61   6s4p3d1f1g
 N                  Weigend Coulomb Fitting         15       61   6s4p3d1f1g
 C                  Weigend Coulomb Fitting         15       61   6s4p3d1f1g
 F                  Weigend Coulomb Fitting         15       61   6s4p3d1f1g
 H                  Weigend Coulomb Fitting          5       12   3s1p1d




 Summary of "ao basis" -> "ao basis" (spherical)
 ------------------------------------------------------------------------------
       Tag                 Description            Shells   Functions and Types
 ---------------- ------------------------------  ------  ---------------------
 B                         def2-tzvp                11       31   5s3p2d1f
 N                         def2-tzvp                11       31   5s3p2d1f
 C                         def2-tzvp                11       31   5s3p2d1f
 F                         def2-tzvp                11       31   5s3p2d1f
 H                         def2-tzvp                 4        6   3s1p


      Symmetry analysis of basis
      --------------------------

        a1        173
        a2         69
        b1        145
        b2         89


 solvent parameters
 solvname_short: toluene 
 solvname_long:  toluene                            
 dielec:        2.3741
 dielecinf:     2.2383

          ---------------
          -cosmo- solvent
          ---------------
 Cosmo: York-Karplus, doi: 10.1021/jp992097l
 dielectric constant -eps-     =   2.37
 screen = (eps-1)/(eps    )    =   0.57879
 surface charge correction     = lagrangian
 -lineq- algorithm             =   0
 -bem- low  level              =   2
 -bem- from -octahedral-
 gaussian surface charge width =   0.98000
 degree of switching           =   1.00000
 switching function tolerance  =   0.00010
 atomic radii = 
 --------------
    1  5.000  2.047
    2  7.000  1.830
    3  6.000  2.000
    4  6.000  2.000
    5  6.000  2.000
    6  6.000  2.000
    7  6.000  2.000
    8  6.000  2.000
    9  7.000  1.830
   10  6.000  2.000
   11  6.000  2.000
   12  6.000  2.000
   13  9.000  1.720
   14  9.000  1.720
   15  1.000  1.300
   16  1.000  1.300
   17  1.000  1.300
   18  1.000  1.300
   19  1.000  1.300
   20  1.000  1.300
   21  1.000  1.300

 solvent accessible surface
 --------------------------

 ---------- ATOMIC COORDINATES (A.U.) ------------ VDWR(ANG.) --
     1    0.00000000    0.00000000   -2.27707471     2.047
     2   -2.35510586    0.00000000   -0.53454274     1.830
     3   -4.75728271    0.00000000   -1.24932758     2.000
     4   -6.34313966    0.00000000    0.87427082     2.000
     5   -4.80039080    0.00000000    2.96693049     2.000
     6   -2.27776410    0.00000000    2.07169988     2.000
     7    0.00000000    0.00000000    3.36193527     2.000
     8    2.27776410    0.00000000    2.07169988     2.000
     9    2.35510586    0.00000000   -0.53454274     1.830
    10    4.75728271    0.00000000   -1.24932758     2.000
    11    6.34313966    0.00000000    0.87427082     2.000
    12    4.80039080    0.00000000    2.96693049     2.000
    13    0.00000000    2.13444080   -3.76342315     1.720
    14    0.00000000   -2.13444080   -3.76342315     1.720
    15   -5.25712798    0.00000000   -3.21493123     1.300
    16   -8.36836292    0.00000000    0.83434718     1.300
    17   -5.34919913    0.00000000    4.91758044     1.300
    18    0.00000000    0.00000000    5.40210076     1.300
    19    5.25712798    0.00000000   -3.21493123     1.300
    20    8.36836292    0.00000000    0.83434718     1.300
    21    5.34919913    0.00000000    4.91758044     1.300
 number of segments per atom =         32
 number of   points per atom =         32
 atom (   nspa,  nppa )
 ----------------------
    1 (      4,     0 )       0
    2 (      8,     0 )       0
    3 (     14,     0 )       0
    4 (     12,     0 )       0
    5 (     16,     0 )       0
    6 (      8,     0 )       0
    7 (     12,     0 )       0
    8 (      8,     0 )       0
    9 (      8,     0 )       0
   10 (     14,     0 )       0
   11 (     12,     0 )       0
   12 (     16,     0 )       0
   13 (     22,     0 )       0
   14 (     22,     0 )       0
   15 (     14,     0 )       0
   16 (     16,     0 )       0
   17 (     14,     0 )       0
   18 (     16,     0 )       0
   19 (     14,     0 )       0
   20 (     16,     0 )       0
   21 (     14,     0 )       0
 number of -cosmo- surface points =      280
 molecular surface =    215.042 angstrom**2
 molecular volume  =    129.716 angstrom**3
 G(cav/disp)       =      1.935 kcal/mol
 ...... end of -cosmo- initialization ......


  int_init: cando_txs set to always be  F
  Caching 1-el integrals 

            General Information
            -------------------
          SCF calculation type: DFT
          Wavefunction type:  closed shell.
          No. of atoms     :    21
          No. of electrons :    98
           Alpha electrons :    49
            Beta electrons :    49
          Charge           :     0
          Spin multiplicity:     1
          Use of symmetry is: on ; symmetry adaption is: on 
          Maximum number of iterations: 500
          This is a Direct SCF calculation.
          AO basis - number of functions:   476
                     number of shells:   182
          A Charge density fitting basis will be used.
          CD basis - number of functions:   938
                     number of shells:   245
          Convergence on energy requested:  1.00D-06
          Convergence on density requested:  1.00D-05
          Convergence on gradient requested:  5.00D-04

              XC Information
              --------------
                         B3LYP Method XC Potential
                     Hartree-Fock (Exact) Exchange  0.200          
                        Slater Exchange Functional  0.800 local    
                    Becke 1988 Exchange Functional  0.720 non-local
              Lee-Yang-Parr Correlation Functional  0.810          
                  VWN I RPA Correlation Functional  0.190 local    

             Grid Information
             ----------------
          Grid used for XC integration:  xfine     
          Radial quadrature: Mura-Knowles        
          Angular quadrature: Lebedev. 
          Tag              B.-S. Rad. Rad. Pts. Rad. Cut. Ang. Pts.
          ---              ---------- --------- --------- ---------
          B                   0.85      100          13.0      1454
          N                   0.65      100          14.0      1454
          C                   0.70      100          17.0      1454
          F                   0.50      100          14.0      1454
          H                   0.35      100          17.0      1202
          Grid pruning is: on 
          Number of quadrature shells:  1200
          Spatial weights used:  Erf1

          Convergence Information
          -----------------------
          Convergence aids based upon iterative change in 
          total energy or number of iterations. 
          Levelshifting, if invoked, occurs when the 
          HOMO/LUMO gap drops below (HL_TOL):  1.00D-02
          DIIS, if invoked, will attempt to extrapolate 
          using up to (NFOCK): 10 stored Fock matrices.

                    Damping(40%)  Levelshifting(0.0)       DIIS
                  --------------- ------------------- ---------------
          dE  on:    start            0.00D+00            start   
          dE off:  500 iters          0.00D+00          500 iters 


      Screening Tolerance Information
      -------------------------------
          Density screening/tol_rho:  1.00D-10
          AO Gaussian exp screening on grid/accAOfunc:  14
          CD Gaussian exp screening on grid/accCDfunc:  20
          XC Gaussian exp screening on grid/accXCfunc:  20
          Schwarz screening/accCoul:  1.00D-08

      Dispersion Parameters
      ---------------------

           DFT-D3BJ Model   
          s6 scale factor  :        1.000000000000
          s8 scale factor  :        1.988900000000
          a1 parameter     :        0.398100000000
          a2 parameter     :        4.421100000000
              vdW contrib  :       -0.043313478588


      Superposition of Atomic Density Guess
      -------------------------------------

 Sum of atomic energies:        -674.53459142

      Non-variational initial energy
      ------------------------------

 Total energy =    -684.098283
 1-e energy   =   -2640.928775
 2-e energy   =    1090.120104
 HOMO         =      -0.229206
 LUMO         =      -0.116915


      Symmetry analysis of molecular orbitals - initial
      -------------------------------------------------

  Numbering of irreducible representations: 

     1 a1          2 a2          3 b1          4 b2      

  Orbital symmetries:

     1 a1          2 b2          3 a1          4 b1          5 a1      
     6 b1          7 a1          8 b1          9 a1         10 b1      
    11 a1         12 b1         13 a1         14 a1         15 a1      
    16 b1         17 a1         18 b2         19 a1         20 a1      
    21 b1         22 b1         23 a1         24 a1         25 a1      
    26 b1         27 b1         28 a1         29 b1         30 b2      
    31 a1         32 a1         33 b1         34 a2         35 b2      
    36 b2         37 a2         38 a1         39 a1         40 b1      
    41 a1         42 b1         43 b1         44 a1         45 b1      
    46 b2         47 b2         48 a2         49 a2         50 b2      
    51 a2         52 b2         53 a2         54 a1         55 a1      
    56 b1         57 a1         58 b2         59 a1      

   Time after variat. SCF:     17.3

      3 Center 2 Electron Integral Information
      ----------------------------------------
          Maximum number of 3-center 2e- integrals is:       212528288.
            This is reduced with Schwarz screening to:       118805204.
            Incore requires a per proc buffer size of:        90505745.
          Minimum dble words available (all nodes) is:      1073732612
                   This is reduced (for later use) to:      1069876038
                      proc 0 Suggested buffer size is:        90505745
                         Max Suggested buffer size is:        90505745
                              no. integral batches is:            1000

          Incore memory use for 3-center 2e- integrals is turned off. 
   Time prior to 1st pass:     17.3

 Grid_pts file          = /tmp/BODIPY_TDDFT.gridpts.0
 Record size in doubles =  12289        No. of grid_pts per rec  =   3070
 Max. records in memory =    626        Max. recs in file   =    574189


           Memory utilization after 1st SCF pass: 
           Heap Space remaining (MW):      529.17           529170114
          Stack Space remaining (MW):      536.87           536867796

   convergence    iter        energy       DeltaE   RMS-Dens  Diis-err    time
 ---------------- ----- ----------------- --------- --------- ---------  ------
     COSMO gas phase
 d=40,ls=0.0,diis     1   -681.4798454062 -1.55D+03  3.97D-03  2.37D+00   164.7
 Grid integrated density:      98.000001028967
 Requested integration accuracy:   0.10E-07
 d=40,ls=0.0,diis     2   -681.5762879911 -9.64D-02  1.45D-03  5.71D-01   311.8
 Grid integrated density:      98.000001127898
 Requested integration accuracy:   0.10E-07
 d=40,ls=0.0,diis     3   -681.6418418274 -6.56D-02  7.01D-04  7.33D-02   464.1
 Grid integrated density:      98.000001124026
 Requested integration accuracy:   0.10E-07
 d=40,ls=0.0,diis     4   -681.6707373853 -2.89D-02  3.09D-04  1.98D-02   618.4
 d=40,ls=0.0,diis     5   -681.6836057928 -1.29D-02  3.80D-04  2.94D-03   817.2
  Resetting Diis
 d=40,ls=0.0,diis     6   -681.6886130028 -5.01D-03  1.73D-04  5.55D-04  1016.3
 d=40,ls=0.0,diis     7   -681.6906054995 -1.99D-03  5.92D-05  1.01D-04  1209.0
 d=40,ls=0.0,diis     8   -681.6913978161 -7.92D-04  2.25D-05  2.68D-05  1396.0
 d=40,ls=0.0,diis     9   -681.6917175884 -3.20D-04  1.19D-05  2.32D-06  1599.4
 d=40,ls=0.0,diis    10   -681.6918451242 -1.28D-04  4.98D-06  1.14D-06  1781.5
 d=40,ls=0.0,diis    11   -681.6918963195 -5.12D-05  1.84D-06  1.29D-07  1970.2
 d=40,ls=0.0,diis    12   -681.6919167734 -2.05D-05  7.47D-07  2.20D-08  2156.9
 d=40,ls=0.0,diis    13   -681.6919249539 -8.18D-06  3.31D-07  3.44D-09  2337.8
 d=40,ls=0.0,diis    14   -681.6919282258 -3.27D-06  1.43D-07  4.74D-10  2520.6
 d=40,ls=0.0,diis    15   -681.6919295345 -1.31D-06  5.79D-08  1.28D-10  2701.3
 d=40,ls=0.0,diis    16   -681.6919300580 -5.24D-07  2.27D-08  3.33D-11  2882.8

           Memory utilization after 1st SCF pass: 
           Heap Space remaining (MW):      529.17           529170114
          Stack Space remaining (MW):      536.87           536867796

   convergence    iter        energy       DeltaE   RMS-Dens  Diis-err    time
 ---------------- ----- ----------------- --------- --------- ---------  ------
     COSMO solvation phase
 d=40,ls=0.0,diis     1   -681.7000274925 -8.10D-03  4.64D-04  2.24D-03  3067.3
 d=40,ls=0.0,diis     2   -681.7003920667 -3.65D-04  1.82D-04  6.38D-04  3252.3
 d=40,ls=0.0,diis     3   -681.7005761612 -1.84D-04  7.79D-05  1.00D-04  3438.9
 d=40,ls=0.0,diis     4   -681.7006602062 -8.40D-05  3.33D-05  1.65D-05  3625.9
 d=40,ls=0.0,diis     5   -681.7006936759 -3.35D-05  1.57D-05  2.93D-06  3809.5
 d=40,ls=0.0,diis     6   -681.7007071574 -1.35D-05  6.77D-06  5.20D-07  3993.2
 d=40,ls=0.0,diis     7   -681.7007125480 -5.39D-06  3.05D-06  8.56D-08  4177.6
 d=40,ls=0.0,diis     8   -681.7007147029 -2.15D-06  6.12D-06  1.28D-08  4360.4
 d=40,ls=0.0,diis     9   -681.7007155662 -8.63D-07  2.83D-06  2.31D-09  4545.2


         Total DFT energy =     -681.700715566185
      One electron energy =    -2652.271854103580
           Coulomb energy =     1194.075125386127
    Exchange-Corr. energy =      -90.645984506365
 Nuclear repulsion energy =      866.710389219750

    Dispersion correction =       -0.043313478588

             COSMO energy =        0.474921916471

 Numeric. integr. density =       97.999999942625

     Total iterative time =   4527.9s


                                   COSMO solvation results
                                   -----------------------

                 gas phase energy =      -681.691930058033
                 sol phase energy =      -681.700715566185
 (electrostatic) solvation energy =         0.008785508152 (    5.51 kcal/mol)

                  Occupations of the irreducible representations
                  ----------------------------------------------

                     irrep           alpha         beta
                     --------     --------     --------
                     a1               22.0         22.0
                     a2                4.0          4.0
                     b1               16.0         16.0
                     b2                7.0          7.0


                       DFT Final Molecular Orbital Analysis
                       ------------------------------------

 Vector    1  Occ=2.000000D+00  E=-2.463812D+01  Symmetry=a1
              MO Center=  4.7D-18, -1.2D-09, -2.0D+00, r^2= 1.3D+00
   Bfn.  Coefficient  Atom+Function         Bfn.  Coefficient  Atom+Function  
  ----- ------------  ---------------      ----- ------------  ---------------
   374      0.458829  13 F  s               405      0.458829  14 F  s         
   373      0.300756  13 F  s               404      0.300756  14 F  s         

 Vector    2  Occ=2.000000D+00  E=-2.463811D+01  Symmetry=b2
              MO Center=  5.4D-20,  1.2D-09, -2.0D+00, r^2= 1.3D+00
   Bfn.  Coefficient  Atom+Function         Bfn.  Coefficient  Atom+Function  
  ----- ------------  ---------------      ----- ------------  ---------------
   374      0.458885  13 F  s               405     -0.458885  14 F  s         
   373      0.300749  13 F  s               404     -0.300749  14 F  s         

 Vector    3  Occ=2.000000D+00  E=-1.435752D+01  Symmetry=b1
              MO Center= -3.3D-16,  4.5D-22, -2.8D-01, r^2= 1.6D+00
   Bfn.  Coefficient  Atom+Function         Bfn.  Coefficient  Atom+Function  
  ----- ------------  ---------------      ----- ------------  ---------------
    33      0.442802   2 N  s               250     -0.442802   9 N  s         
    32      0.317028   2 N  s               249     -0.317028   9 N  s         
    35     -0.044760   2 N  s               252      0.044760   9 N  s         
    34      0.032241   2 N  s               251     -0.032241   9 N  s         

 Vector    4  Occ=2.000000D+00  E=-1.435752D+01  Symmetry=a1
              MO Center= -6.9D-16,  3.4D-19, -2.8D-01, r^2= 1.6D+00
   Bfn.  Coefficient  Atom+Function         Bfn.  Coefficient  Atom+Function  
  ----- ------------  ---------------      ----- ------------  ---------------
    33      0.442809   2 N  s               250      0.442809   9 N  s         
    32      0.317028   2 N  s               249      0.317028   9 N  s         
    35     -0.039717   2 N  s               252     -0.039717   9 N  s         
    34      0.031578   2 N  s               251      0.031578   9 N  s         

 Vector    5  Occ=2.000000D+00  E=-1.022951D+01  Symmetry=a1
              MO Center= -9.8D-14,  3.6D-19,  1.8D+00, r^2= 3.9D-02
   Bfn.  Coefficient  Atom+Function         Bfn.  Coefficient  Atom+Function  
  ----- ------------  ---------------      ----- ------------  ---------------
   188      0.606333   7 C  s               187      0.465476   7 C  s         
   191     -0.087343   7 C  s               167      0.044521   6 C  px        
   229     -0.044521   8 C  px              189      0.040601   7 C  s         
   129      0.040006   5 C  s               346      0.040006  12 C  s         
   157      0.032290   6 C  s               219      0.032290   8 C  s         

 Vector    6  Occ=2.000000D+00  E=-1.022717D+01  Symmetry=b1
              MO Center=  8.9D-16,  2.2D-22, -6.6D-01, r^2= 6.4D+00
   Bfn.  Coefficient  Atom+Function         Bfn.  Coefficient  Atom+Function  
  ----- ------------  ---------------      ----- ------------  ---------------
    64      0.430004   3 C  s               281     -0.430004  10 C  s         
    63      0.330071   3 C  s               280     -0.330071  10 C  s         
    65      0.028658   3 C  s               282     -0.028658  10 C  s         

 Vector    7  Occ=2.000000D+00  E=-1.022717D+01  Symmetry=a1
              MO Center=  4.4D-16,  3.9D-22, -6.6D-01, r^2= 6.4D+00
   Bfn.  Coefficient  Atom+Function         Bfn.  Coefficient  Atom+Function  
  ----- ------------  ---------------      ----- ------------  ---------------
    64      0.429996   3 C  s               281      0.429996  10 C  s         
    63      0.330071   3 C  s               280      0.330071  10 C  s         
   191     -0.052268   7 C  s                65      0.028437   3 C  s         
   282      0.028437  10 C  s                 4      0.026221   1 B  s         
   160      0.026250   6 C  s               222      0.026250   8 C  s         

 Vector    8  Occ=2.000000D+00  E=-1.022382D+01  Symmetry=b1
              MO Center= -2.2D-11,  7.5D-19,  1.1D+00, r^2= 1.5D+00
   Bfn.  Coefficient  Atom+Function         Bfn.  Coefficient  Atom+Function  
  ----- ------------  ---------------      ----- ------------  ---------------
   157      0.429732   6 C  s               219     -0.429732   8 C  s         
   156      0.330097   6 C  s               218     -0.330097   8 C  s         
   159     -0.037495   6 C  s               221      0.037495   8 C  s         
   158      0.034045   6 C  s               220     -0.034045   8 C  s         
   128      0.026144   5 C  s               345     -0.026144  12 C  s         

 Vector    9  Occ=2.000000D+00  E=-1.022379D+01  Symmetry=a1
              MO Center=  2.2D-11,  6.5D-18,  1.1D+00, r^2= 1.5D+00
   Bfn.  Coefficient  Atom+Function         Bfn.  Coefficient  Atom+Function  
  ----- ------------  ---------------      ----- ------------  ---------------
   157      0.428441   6 C  s               219      0.428441   8 C  s         
   156      0.329176   6 C  s               218      0.329176   8 C  s         
   188     -0.045764   7 C  s               159     -0.042312   6 C  s         
   221     -0.042312   8 C  s               190      0.036051   7 C  s         
   187     -0.035190   7 C  s               158      0.034609   6 C  s         

 Vector   10  Occ=2.000000D+00  E=-1.019436D+01  Symmetry=b1
              MO Center=  1.9D-08, -3.6D-19,  1.6D+00, r^2= 6.5D+00
   Bfn.  Coefficient  Atom+Function         Bfn.  Coefficient  Atom+Function  
  ----- ------------  ---------------      ----- ------------  ---------------
   126      0.429908   5 C  s               343     -0.429908  12 C  s         
   125      0.329918   5 C  s               342     -0.329918  12 C  s         
   127      0.027802   5 C  s               344     -0.027802  12 C  s         

 Vector   11  Occ=2.000000D+00  E=-1.019436D+01  Symmetry=a1
              MO Center= -1.9D-08,  2.7D-23,  1.6D+00, r^2= 6.5D+00
   Bfn.  Coefficient  Atom+Function         Bfn.  Coefficient  Atom+Function  
  ----- ------------  ---------------      ----- ------------  ---------------
   126      0.429920   5 C  s               343      0.429920  12 C  s         
   125      0.329917   5 C  s               342      0.329917  12 C  s         
   127      0.027463   5 C  s               344      0.027463  12 C  s         

 Vector   12  Occ=2.000000D+00  E=-1.018263D+01  Symmetry=a1
              MO Center= -7.3D-15, -5.0D-22,  4.6D-01, r^2= 1.1D+01
   Bfn.  Coefficient  Atom+Function         Bfn.  Coefficient  Atom+Function  
  ----- ------------  ---------------      ----- ------------  ---------------
    95      0.429948   4 C  s               312      0.429948  11 C  s         
    94      0.329910   4 C  s               311      0.329910  11 C  s         
   191     -0.032791   7 C  s                96      0.027230   4 C  s         
   313      0.027230  11 C  s         

 Vector   13  Occ=2.000000D+00  E=-1.018263D+01  Symmetry=b1
              MO Center=  8.9D-16,  9.1D-24,  4.6D-01, r^2= 1.1D+01
   Bfn.  Coefficient  Atom+Function         Bfn.  Coefficient  Atom+Function  
  ----- ------------  ---------------      ----- ------------  ---------------
    95      0.429947   4 C  s               312     -0.429947  11 C  s         
    94      0.329910   4 C  s               311     -0.329910  11 C  s         
    96      0.027271   4 C  s               313     -0.027271  11 C  s         

 Vector   14  Occ=2.000000D+00  E=-6.825297D+00  Symmetry=a1
              MO Center= -7.3D-17,  3.1D-17, -1.2D+00, r^2= 4.1D-02
   Bfn.  Coefficient  Atom+Function         Bfn.  Coefficient  Atom+Function  
  ----- ------------  ---------------      ----- ------------  ---------------
     2      0.578828   1 B  s                 1      0.495724   1 B  s         
     3      0.038707   1 B  s         

 Vector   15  Occ=2.000000D+00  E=-1.183463D+00  Symmetry=a1
              MO Center= -4.3D-17, -2.0D-13, -1.9D+00, r^2= 1.4D+00
   Bfn.  Coefficient  Atom+Function         Bfn.  Coefficient  Atom+Function  
  ----- ------------  ---------------      ----- ------------  ---------------
   376      0.331566  13 F  s               407      0.331566  14 F  s         
   375      0.243984  13 F  s               406      0.243984  14 F  s         
   374     -0.171884  13 F  s               405     -0.171884  14 F  s         
   377      0.145270  13 F  s               408      0.145270  14 F  s         
     3      0.115163   1 B  s               373     -0.070826  13 F  s         

 Vector   16  Occ=2.000000D+00  E=-1.150050D+00  Symmetry=b2
              MO Center= -1.6D-17,  2.1D-13, -1.9D+00, r^2= 1.5D+00
   Bfn.  Coefficient  Atom+Function         Bfn.  Coefficient  Atom+Function  
  ----- ------------  ---------------      ----- ------------  ---------------
   376      0.350258  13 F  s               407     -0.350258  14 F  s         
   375      0.257502  13 F  s               406     -0.257502  14 F  s         
   374     -0.180208  13 F  s               405      0.180208  14 F  s         
   377      0.153938  13 F  s               408     -0.153938  14 F  s         
     7      0.099475   1 B  py              373     -0.074168  13 F  s         

 Vector   17  Occ=2.000000D+00  E=-1.012739D+00  Symmetry=a1
              MO Center=  9.6D-15, -2.7D-15,  7.2D-02, r^2= 3.5D+00
   Bfn.  Coefficient  Atom+Function         Bfn.  Coefficient  Atom+Function  
  ----- ------------  ---------------      ----- ------------  ---------------
    35      0.244418   2 N  s               252      0.244418   9 N  s         
    34      0.173399   2 N  s               251      0.173399   9 N  s         
    33     -0.121600   2 N  s               250     -0.121600   9 N  s         
   158      0.109569   6 C  s               220      0.109569   8 C  s         
    65      0.100179   3 C  s               282      0.100179  10 C  s         

 Vector   18  Occ=2.000000D+00  E=-9.959384D-01  Symmetry=b1
              MO Center= -1.1D-14, -6.0D-16,  1.8D-02, r^2= 4.0D+00
   Bfn.  Coefficient  Atom+Function         Bfn.  Coefficient  Atom+Function  
  ----- ------------  ---------------      ----- ------------  ---------------
    35      0.242509   2 N  s               252     -0.242509   9 N  s         
    34      0.177005   2 N  s               251     -0.177005   9 N  s         
    33     -0.122644   2 N  s               250      0.122644   9 N  s         
    65      0.115392   3 C  s               282     -0.115392  10 C  s         
   158      0.097570   6 C  s               220     -0.097570   8 C  s         

 Vector   19  Occ=2.000000D+00  E=-8.306580D-01  Symmetry=a1
              MO Center=  6.4D-15,  2.6D-17,  9.7D-01, r^2= 3.3D+00
   Bfn.  Coefficient  Atom+Function         Bfn.  Coefficient  Atom+Function  
  ----- ------------  ---------------      ----- ------------  ---------------
   189      0.241071   7 C  s               190      0.213902   7 C  s         
   159      0.156006   6 C  s               221      0.156006   8 C  s         
   188     -0.152718   7 C  s               158      0.131187   6 C  s         
   220      0.131187   8 C  s               191      0.117535   7 C  s         
    66     -0.107707   3 C  s               283     -0.107707  10 C  s         

 Vector   20  Occ=2.000000D+00  E=-8.071088D-01  Symmetry=a1
              MO Center= -7.5D-15, -4.8D-17,  6.1D-01, r^2= 7.4D+00
   Bfn.  Coefficient  Atom+Function         Bfn.  Coefficient  Atom+Function  
  ----- ------------  ---------------      ----- ------------  ---------------
    35      0.154603   2 N  s               252      0.154603   9 N  s         
   127     -0.153155   5 C  s               344     -0.153155  12 C  s         
    96     -0.143483   4 C  s               128     -0.143312   5 C  s         
   313     -0.143483  11 C  s               345     -0.143312  12 C  s         
    97     -0.132979   4 C  s               314     -0.132979  11 C  s         

 Vector   21  Occ=2.000000D+00  E=-7.947216D-01  Symmetry=b1
              MO Center=  1.1D-16, -5.9D-16,  6.8D-01, r^2= 7.6D+00
   Bfn.  Coefficient  Atom+Function         Bfn.  Coefficient  Atom+Function  
  ----- ------------  ---------------      ----- ------------  ---------------
    35      0.163389   2 N  s               127     -0.164156   5 C  s         
   252     -0.163389   9 N  s               344      0.164156  12 C  s         
   128     -0.150648   5 C  s               345      0.150648  12 C  s         
    96     -0.139352   4 C  s               313      0.139352  11 C  s         
    97     -0.135896   4 C  s               314      0.135896  11 C  s         

 Vector   22  Occ=2.000000D+00  E=-7.427562D-01  Symmetry=b1
              MO Center=  7.5D-15,  4.7D-17,  3.3D-01, r^2= 6.6D+00
   Bfn.  Coefficient  Atom+Function         Bfn.  Coefficient  Atom+Function  
  ----- ------------  ---------------      ----- ------------  ---------------
   159      0.195569   6 C  s               221     -0.195569   8 C  s         
    66     -0.168969   3 C  s               283      0.168969  10 C  s         
   158      0.159194   6 C  s               220     -0.159194   8 C  s         
    65     -0.149084   3 C  s               282      0.149084  10 C  s         
    96     -0.111894   4 C  s               313      0.111894  11 C  s         

 Vector   23  Occ=2.000000D+00  E=-6.824025D-01  Symmetry=a1
              MO Center= -5.6D-14, -9.3D-17,  4.6D-01, r^2= 6.8D+00
   Bfn.  Coefficient  Atom+Function         Bfn.  Coefficient  Atom+Function  
  ----- ------------  ---------------      ----- ------------  ---------------
   190      0.217825   7 C  s                66      0.185220   3 C  s         
   283      0.185220  10 C  s               189      0.183067   7 C  s         
    65      0.153036   3 C  s               282      0.153036  10 C  s         
   188     -0.115047   7 C  s               191      0.108057   7 C  s         
   128     -0.106768   5 C  s               345     -0.106768  12 C  s         

 Vector   24  Occ=2.000000D+00  E=-6.228534D-01  Symmetry=a1
              MO Center= -7.3D-14, -3.1D-15,  1.4D-01, r^2= 8.0D+00
   Bfn.  Coefficient  Atom+Function         Bfn.  Coefficient  Atom+Function  
  ----- ------------  ---------------      ----- ------------  ---------------
    97      0.159901   4 C  s               314      0.159901  11 C  s         
     4      0.155855   1 B  s                37      0.151880   2 N  px        
   254     -0.151880   9 N  px                3      0.142337   1 B  s         
    96      0.137667   4 C  s               313      0.137667  11 C  s         
    40      0.114733   2 N  px              257     -0.114733   9 N  px        

 Vector   25  Occ=2.000000D+00  E=-6.074502D-01  Symmetry=a1
              MO Center=  1.4D-12, -2.1D-15,  4.9D-01, r^2= 6.6D+00
   Bfn.  Coefficient  Atom+Function         Bfn.  Coefficient  Atom+Function  
  ----- ------------  ---------------      ----- ------------  ---------------
    39      0.147980   2 N  pz              256      0.147980   9 N  pz        
     4     -0.136675   1 B  s               128     -0.137196   5 C  s         
   345     -0.137196  12 C  s                 3     -0.131033   1 B  s         
   127     -0.111968   5 C  s               344     -0.111968  12 C  s         
    42      0.109633   2 N  pz              259      0.109633   9 N  pz        

 Vector   26  Occ=2.000000D+00  E=-5.949806D-01  Symmetry=b1
              MO Center= -1.4D-12, -6.1D-16,  5.8D-01, r^2= 7.6D+00
   Bfn.  Coefficient  Atom+Function         Bfn.  Coefficient  Atom+Function  
  ----- ------------  ---------------      ----- ------------  ---------------
   128     -0.159812   5 C  s               345      0.159812  12 C  s         
    39      0.150332   2 N  pz              256     -0.150332   9 N  pz        
   127     -0.123559   5 C  s               344      0.123559  12 C  s         
    42      0.115412   2 N  pz              259     -0.115412   9 N  pz        
   163     -0.103304   6 C  pz              225      0.103304   8 C  pz        

 Vector   27  Occ=2.000000D+00  E=-5.909563D-01  Symmetry=b1
              MO Center=  6.0D-14,  2.9D-19,  4.4D-01, r^2= 7.5D+00
   Bfn.  Coefficient  Atom+Function         Bfn.  Coefficient  Atom+Function  
  ----- ------------  ---------------      ----- ------------  ---------------
   192     -0.175457   7 C  px               66      0.161554   3 C  s         
   283     -0.161554  10 C  s               159      0.143586   6 C  s         
   221     -0.143586   8 C  s                65      0.123413   3 C  s         
   282     -0.123413  10 C  s                35     -0.117609   2 N  s         
   252      0.117609   9 N  s               158      0.105479   6 C  s         

 Vector   28  Occ=2.000000D+00  E=-5.576760D-01  Symmetry=b1
              MO Center=  6.1D-14,  1.5D-18,  2.6D-01, r^2= 8.8D+00
   Bfn.  Coefficient  Atom+Function         Bfn.  Coefficient  Atom+Function  
  ----- ------------  ---------------      ----- ------------  ---------------
    37      0.141422   2 N  px              254      0.141422   9 N  px        
   192     -0.126824   7 C  px               99     -0.122504   4 C  px        
   316     -0.122504  11 C  px              161      0.119374   6 C  px        
   223      0.119374   8 C  px                6     -0.116769   1 B  px        
    97      0.115217   4 C  s               314     -0.115217  11 C  s         

 Vector   29  Occ=2.000000D+00  E=-5.217412D-01  Symmetry=a1
              MO Center= -2.8D-14,  9.8D-16, -2.7D-01, r^2= 8.0D+00
   Bfn.  Coefficient  Atom+Function         Bfn.  Coefficient  Atom+Function  
  ----- ------------  ---------------      ----- ------------  ---------------
   379      0.168550  13 F  py              410     -0.168550  14 F  py        
   382      0.131843  13 F  py              413     -0.131843  14 F  py        
   194     -0.121669   7 C  pz               70     -0.120236   3 C  pz        
   287     -0.120236  10 C  pz                3     -0.115004   1 B  s         
     8      0.103755   1 B  pz              190     -0.101974   7 C  s         

 Vector   30  Occ=2.000000D+00  E=-5.180569D-01  Symmetry=a1
              MO Center=  1.6D-14, -7.5D-15, -4.0D-01, r^2= 7.4D+00
   Bfn.  Coefficient  Atom+Function         Bfn.  Coefficient  Atom+Function  
  ----- ------------  ---------------      ----- ------------  ---------------
   379      0.179019  13 F  py              410     -0.179019  14 F  py        
   382      0.140024  13 F  py              413     -0.140024  14 F  py        
     3     -0.117493   1 B  s               159     -0.111584   6 C  s         
   221     -0.111584   8 C  s               190      0.109316   7 C  s         
   160     -0.108160   6 C  s               222     -0.108160   8 C  s         

 Vector   31  Occ=2.000000D+00  E=-4.975705D-01  Symmetry=b2
              MO Center=  2.4D-15,  1.6D-14, -1.4D+00, r^2= 3.1D+00
   Bfn.  Coefficient  Atom+Function         Bfn.  Coefficient  Atom+Function  
  ----- ------------  ---------------      ----- ------------  ---------------
     7      0.217584   1 B  py              380      0.215738  13 F  pz        
   411     -0.215738  14 F  pz              383      0.171565  13 F  pz        
   414     -0.171565  14 F  pz              379     -0.153832  13 F  py        
   410     -0.153832  14 F  py              382     -0.120787  13 F  py        
   413     -0.120787  14 F  py               38      0.112449   2 N  py        

 Vector   32  Occ=2.000000D+00  E=-4.743208D-01  Symmetry=a1
              MO Center=  3.2D-15, -3.3D-16,  1.2D-01, r^2= 6.3D+00
   Bfn.  Coefficient  Atom+Function         Bfn.  Coefficient  Atom+Function  
  ----- ------------  ---------------      ----- ------------  ---------------
   194      0.170358   7 C  pz                8      0.151436   1 B  pz        
   379      0.142182  13 F  py              410     -0.142182  14 F  py        
    37      0.122488   2 N  px              254     -0.122488   9 N  px        
   197      0.117261   7 C  pz              382      0.114159  13 F  py        
   413     -0.114159  14 F  py              161     -0.111507   6 C  px        

 Vector   33  Occ=2.000000D+00  E=-4.646178D-01  Symmetry=b1
              MO Center=  5.2D-15, -5.3D-15,  1.4D-01, r^2= 7.8D+00
   Bfn.  Coefficient  Atom+Function         Bfn.  Coefficient  Atom+Function  
  ----- ------------  ---------------      ----- ------------  ---------------
   378      0.157983  13 F  px              409      0.157983  14 F  px        
   132      0.135967   5 C  pz              349     -0.135967  12 C  pz        
     6      0.128149   1 B  px              381      0.128704  13 F  px        
   412      0.128704  14 F  px               39      0.123768   2 N  pz        
   256     -0.123768   9 N  pz              163     -0.114044   6 C  pz        

 Vector   34  Occ=2.000000D+00  E=-4.511663D-01  Symmetry=b1
              MO Center= -1.2D-14,  1.3D-17, -3.1D-01, r^2= 6.9D+00
   Bfn.  Coefficient  Atom+Function         Bfn.  Coefficient  Atom+Function  
  ----- ------------  ---------------      ----- ------------  ---------------
   192      0.157465   7 C  px               37      0.151362   2 N  px        
   254      0.151362   9 N  px               68     -0.142602   3 C  px        
   285     -0.142602  10 C  px              378     -0.122927  13 F  px        
   409     -0.122927  14 F  px               40      0.114103   2 N  px        
   257      0.114103   9 N  px              195      0.101556   7 C  px        

 Vector   35  Occ=2.000000D+00  E=-4.452567D-01  Symmetry=b2
              MO Center=  1.9D-13,  1.9D-14, -1.5D-01, r^2= 5.2D+00
   Bfn.  Coefficient  Atom+Function         Bfn.  Coefficient  Atom+Function  
  ----- ------------  ---------------      ----- ------------  ---------------
   379      0.142735  13 F  py              410      0.142735  14 F  py        
    38      0.134240   2 N  py              255      0.134240   9 N  py        
   162      0.133077   6 C  py              224      0.133077   8 C  py        
    41      0.115294   2 N  py              258      0.115294   9 N  py        
   165      0.113989   6 C  py              227      0.113989   8 C  py        

 Vector   36  Occ=2.000000D+00  E=-4.444759D-01  Symmetry=a1
              MO Center=  4.1D-14, -2.0D-14,  6.8D-01, r^2= 9.8D+00
   Bfn.  Coefficient  Atom+Function         Bfn.  Coefficient  Atom+Function  
  ----- ------------  ---------------      ----- ------------  ---------------
    99      0.177438   4 C  px              316     -0.177438  11 C  px        
   194     -0.168616   7 C  pz              442     -0.128334  16 H  s         
   466     -0.128334  20 H  s               197     -0.111941   7 C  pz        
   102      0.109962   4 C  px              319     -0.109962  11 C  px        
   454     -0.105606  18 H  s               161      0.099897   6 C  px        

 Vector   37  Occ=2.000000D+00  E=-4.390476D-01  Symmetry=a2
              MO Center= -1.9D-13,  6.0D-15, -2.0D-01, r^2= 5.2D+00
   Bfn.  Coefficient  Atom+Function         Bfn.  Coefficient  Atom+Function  
  ----- ------------  ---------------      ----- ------------  ---------------
    38      0.183644   2 N  py              255     -0.183644   9 N  py        
[...]
    Number of AO functions :     476
        Use of symmetry is : off
      Symmetry adaption is : on 
         Schwarz screening :  0.10D-07

              XC Information
              --------------
                  B3LYP Method XC Potential
              Hartree-Fock (Exact) Exchange   0.20          
                 Slater Exchange Functional   0.80 local    
             Becke 1988 Exchange Functional   0.72 non-local
       Lee-Yang-Parr Correlation Functional   0.81          
           VWN I RPA Correlation Functional   0.19 local    

             TDDFT Information
             -----------------
          Calculation type : TDDFT             
         Wavefunction type : Restricted singlets & triplets
          No. of electrons :      98
           Alpha electrons :      49
            Beta electrons :      49
              No. of roots :       5
          Max subspacesize :    5000
            Max iterations :     100
               Target root :       1
           Target symmetry : none
      Symmetry restriction : off
                 Algorithm : Optimal
        Davidson threshold :  0.10D-03

 solvent parameters
 solvname_short: toluene 
 solvname_long:  toluene                            
 dielec:        2.3741
 dielecinf:     2.2383

 solvent accessible surface
 --------------------------

 ---------- ATOMIC COORDINATES (A.U.) ------------ VDWR(ANG.) --
     1    0.00000000    0.00000000   -2.30825190     2.047
     2   -2.35994532    0.00000000   -0.54072394     1.830
     3   -4.78809823    0.00000000   -1.25569363     2.000
     4   -6.37082000    0.00000000    0.88269894     2.000
     5   -4.80680972    0.00000000    2.98462405     2.000
     6   -2.28732420    0.00000000    2.09041885     2.000
     7    0.00000000    0.00000000    3.36515418     2.000
     8    2.28732420    0.00000000    2.09041885     2.000
     9    2.35994532    0.00000000   -0.54072394     1.830
    10    4.78809823    0.00000000   -1.25569363     2.000
    11    6.37082000    0.00000000    0.88269894     2.000
    12    4.80680972    0.00000000    2.98462405     2.000
    13    0.00000000    2.15667759   -3.81889534     1.720
    14    0.00000000   -2.15667759   -3.81889534     1.720
    15   -5.30365615    0.00000000   -3.22714602     1.300
    16   -8.40616037    0.00000000    0.85077372     1.300
    17   -5.35679282    0.00000000    4.94627272     1.300
    18    0.00000000    0.00000000    5.41060859     1.300
    19    5.30365615    0.00000000   -3.22714602     1.300
    20    8.40616037    0.00000000    0.85077372     1.300
    21    5.35679282    0.00000000    4.94627272     1.300
 number of segments per atom =         32
 number of   points per atom =         32
 atom (   nspa,  nppa )
 ----------------------
    1 (      4,     0 )       0
    2 (      8,     0 )       0
    3 (     14,     0 )       0
    4 (     12,     0 )       0
    5 (     16,     0 )       0
    6 (      8,     0 )       0
    7 (     12,     0 )       0
    8 (      8,     0 )       0
    9 (      8,     0 )       0
   10 (     14,     0 )       0
   11 (     12,     0 )       0
   12 (     16,     0 )       0
   13 (     22,     0 )       0
   14 (     22,     0 )       0
   15 (     14,     0 )       0
   16 (     16,     0 )       0
   17 (     14,     0 )       0
   18 (     16,     0 )       0
   19 (     14,     0 )       0
   20 (     16,     0 )       0
   21 (     14,     0 )       0
 number of -cosmo- surface points =      280
 molecular surface =    217.365 angstrom**2
 molecular volume  =    131.041 angstrom**3
 G(cav/disp)       =      1.947 kcal/mol

            Memory Information
            ------------------
          Available GA space size is        1073515248 doubles
          Available MA space size is        1073735228 doubles
          Length of a trial vector is        20923
          Algorithm : Incore multiple tensor contraction
          Estimated peak GA usage is         428638574 doubles
          Estimated peak MA usage is             18000 doubles

    5 smallest eigenvalue differences (eV) 
--------------------------------------------------------
  No. Spin  Occ  Vir  Irrep   E(Occ)    E(Vir)   E(Diff)
--------------------------------------------------------
    1    1   49   50 b1       -0.233    -0.118     3.115
    2    1   48   50 b1       -0.274    -0.118     4.246
    3    1   47   50 a1       -0.282    -0.118     4.449
    4    1   46   50 a1       -0.319    -0.118     5.468
    5    1   45   50 a2       -0.357    -0.118     6.506
--------------------------------------------------------

  Entering Davidson iterations
  Restricted singlet excited states

  Iter   NTrls   NConv    DeltaV     DeltaE      Time   
  ----  ------  ------  ---------  ---------  --------- 
    1      5       0     0.36E+00   0.10+100     2279.3
    2     15       0     0.18E+00   0.36E-01     2795.7
    3     25       0     0.46E-01   0.93E-02     2775.6
    4     35       0     0.14E-01   0.89E-03     2296.2
    5     45       0     0.34E-02   0.11E-03     2310.1
    6     55       0     0.12E-02   0.59E-05     2180.9
    7     65       4     0.39E-03   0.56E-06     2192.7
    8     67       4     0.11E-03   0.52E-07     1416.4
    9     69       5     0.81E-04   0.10E-07     1414.8
  ----  ------  ------  ---------  ---------  --------- 
  Convergence criterion met

  Ground state a1       -681.702189380699 a.u.

  ----------------------------------------------------------------------------
  Root   1 singlet b1             0.114375375 a.u.                3.1123 eV 
  ----------------------------------------------------------------------------
     Transition Moments    X  2.21927   Y -0.00000   Z  0.00000
     Transition Moments   XX -0.00000  XY  0.00000  XZ -0.39760
     Transition Moments   YY  0.00000  YZ -0.00000  ZZ  0.00000
     Dipole Oscillator Strength                    0.3755430925
     Electric Quadrupole                           0.0000000013
     Magnetic Dipole                               0.0000038839
     Total Oscillator Strength                     0.3755469776

     Occ.   48  a2  ---  Virt.   50  b2  -0.37891 X
     Occ.   48  a2  ---  Virt.   52  b2   0.06321 X
     Occ.   49  a2  ---  Virt.   50  b2  -0.93143 X
     Occ.   49  a2  ---  Virt.   50  b2   0.15775 Y
  ----------------------------------------------------------------------------
  Root   2 singlet b1             0.134720945 a.u.                3.6659 eV 
  ----------------------------------------------------------------------------
     Transition Moments    X -1.51930   Y  0.00000   Z -0.00000
     Transition Moments   XX  0.00000  XY  0.00000  XZ -2.70268
     Transition Moments   YY  0.00000  YZ  0.00000  ZZ  0.00000
     Dipole Oscillator Strength                    0.2073146049
     Electric Quadrupole                           0.0000000951
     Magnetic Dipole                               0.0000000162
     Total Oscillator Strength                     0.2073147162

     Occ.   48  a2  ---  Virt.   50  b2  -0.92208 X
     Occ.   48  a2  ---  Virt.   50  b2   0.05543 Y
     Occ.   49  a2  ---  Virt.   50  b2   0.38683 X
     Occ.   49  a2  ---  Virt.   50  b2  -0.09361 Y
     Occ.   49  a2  ---  Virt.   52  b2  -0.05834 X
  ----------------------------------------------------------------------------
  Root   3 singlet a1             0.139852367 a.u.                3.8056 eV 
  ----------------------------------------------------------------------------
     Transition Moments    X -0.00000   Y  0.00000   Z -0.54308
     Transition Moments   XX -0.47582  XY -0.00000  XZ -0.00000
     Transition Moments   YY  0.06258  YZ  0.00000  ZZ -1.26323
     Dipole Oscillator Strength                    0.0274979166
     Electric Quadrupole                           0.0000000065
     Magnetic Dipole                               0.0000000000
     Total Oscillator Strength                     0.0274979231

     Occ.   47  b2  ---  Virt.   50  b2   0.99389 X
     Occ.   47  b2  ---  Virt.   58  b2   0.05003 X
  ----------------------------------------------------------------------------
  Root   4 singlet a1             0.191751100 a.u.                5.2178 eV 
  ----------------------------------------------------------------------------
     Transition Moments    X  0.00000   Y -0.00000   Z -0.50206
     Transition Moments   XX  4.60271  XY  0.00000  XZ -0.00000
     Transition Moments   YY  0.00708  YZ -0.00000  ZZ -2.10006
     Dipole Oscillator Strength                    0.0322225936
     Electric Quadrupole                           0.0000004411
     Magnetic Dipole                               0.0000000000
     Total Oscillator Strength                     0.0322230347

     Occ.   44  b2  ---  Virt.   50  b2   0.05609 X
     Occ.   46  b2  ---  Virt.   50  b2   0.91713 X
     Occ.   46  b2  ---  Virt.   50  b2  -0.06289 Y
     Occ.   47  b2  ---  Virt.   52  b2  -0.07071 X
     Occ.   48  a2  ---  Virt.   51  a2  -0.07580 X
     Occ.   48  a2  ---  Virt.   53  a2  -0.05059 X
     Occ.   49  a2  ---  Virt.   51  a2   0.37177 X
  ----------------------------------------------------------------------------
  Root   5 singlet a2             0.202500439 a.u.                5.5103 eV 
  ----------------------------------------------------------------------------
     Transition Moments    X  0.00000   Y  0.00000   Z  0.00000
     Transition Moments   XX  0.00000  XY  0.04114  XZ  0.00000
     Transition Moments   YY  0.00000  YZ  0.00000  ZZ -0.00000
     Dipole Oscillator Strength                    0.0000000000
     Electric Quadrupole                           0.0000000001
     Magnetic Dipole                               0.0000003324
     Total Oscillator Strength                     0.0000003325

     Occ.   41  b1  ---  Virt.   50  b2   0.06026 X
     Occ.   45  b1  ---  Virt.   50  b2   0.99525 X

              Target root =      1
          Target symmetry = none
      Ground state energy =   -681.702189380699
        Excitation energy =      0.114375374593
     Excited state energy =   -681.587814006105

  stored tddft:energy   -681.58781400610542     

    5 smallest eigenvalue differences (eV) 
--------------------------------------------------------
  No. Spin  Occ  Vir  Irrep   E(Occ)    E(Vir)   E(Diff)
--------------------------------------------------------
    1    1   49   50 b1       -0.233    -0.118     3.115
    2    1   48   50 b1       -0.274    -0.118     4.246
    3    1   47   50 a1       -0.282    -0.118     4.449
    4    1   46   50 a1       -0.319    -0.118     5.468
    5    1   45   50 a2       -0.357    -0.118     6.506
--------------------------------------------------------

  Entering Davidson iterations
  Restricted triplet excited states

  Iter   NTrls   NConv    DeltaV     DeltaE      Time   
  ----  ------  ------  ---------  ---------  --------- 
    1      5       0     0.90E-01   0.10+100     1679.4
    2     15       0     0.20E-01   0.87E-02     2164.1
    3     25       0     0.64E-02   0.40E-03     2182.3
    4     35       0     0.86E-01   0.13E-01     2155.2
    5     45       1     0.16E-01   0.69E-02     2148.8
    6     52       4     0.39E-02   0.15E-03     1882.2
    7     54       4     0.12E-02   0.88E-05     1395.4
    8     56       4     0.31E-03   0.71E-06     1395.7
    9     58       5     0.76E-04   0.43E-07     1405.0
  ----  ------  ------  ---------  ---------  --------- 
  Convergence criterion met

  Ground state a1       -681.702189380699 a.u.

  ----------------------------------------------------------------------------
  Root   1 triplet b1             0.058710022 a.u.                1.5976 eV 
  ----------------------------------------------------------------------------
     Transition Moments                    Spin forbidden
     Oscillator Strength                   Spin forbidden

     Occ.   46  b2  ---  Virt.   51  a2  -0.06880 X
     Occ.   48  a2  ---  Virt.   50  b2  -0.12944 X
     Occ.   49  a2  ---  Virt.   50  b2   1.00253 X
     Occ.   49  a2  ---  Virt.   50  b2   0.16200 Y
  ----------------------------------------------------------------------------
  Root   2 triplet b1             0.101310670 a.u.                2.7568 eV 
  ----------------------------------------------------------------------------
     Transition Moments                    Spin forbidden
     Oscillator Strength                   Spin forbidden

     Occ.   47  b2  ---  Virt.   51  a2   0.11770 X
     Occ.   47  b2  ---  Virt.   53  a2  -0.09419 X
     Occ.   48  a2  ---  Virt.   50  b2  -0.97919 X
     Occ.   48  a2  ---  Virt.   50  b2  -0.07514 Y
     Occ.   49  a2  ---  Virt.   50  b2  -0.12839 X
  ----------------------------------------------------------------------------
  Root   3 triplet a1             0.109384300 a.u.                2.9765 eV 
  ----------------------------------------------------------------------------
     Transition Moments                    Spin forbidden
     Oscillator Strength                   Spin forbidden

     Occ.   46  b2  ---  Virt.   50  b2   0.10596 X
     Occ.   47  b2  ---  Virt.   50  b2  -0.97638 X
     Occ.   47  b2  ---  Virt.   50  b2  -0.06998 Y
     Occ.   48  a2  ---  Virt.   51  a2   0.14041 X
     Occ.   48  a2  ---  Virt.   53  a2  -0.10165 X
  ----------------------------------------------------------------------------
  Root   4 triplet a1             0.131856782 a.u.                3.5880 eV 
  ----------------------------------------------------------------------------
     Transition Moments                    Spin forbidden
     Oscillator Strength                   Spin forbidden

     Occ.   46  b2  ---  Virt.   50  b2  -0.97700 X
     Occ.   46  b2  ---  Virt.   50  b2  -0.10225 Y
     Occ.   46  b2  ---  Virt.   58  b2  -0.06097 X
     Occ.   47  b2  ---  Virt.   50  b2  -0.11727 X
     Occ.   49  a2  ---  Virt.   51  a2   0.15238 X
  ----------------------------------------------------------------------------
  Root   5 triplet a1             0.177336958 a.u.                4.8256 eV 
  ----------------------------------------------------------------------------
     Transition Moments                    Spin forbidden
     Oscillator Strength                   Spin forbidden

     Occ.   37  a2  ---  Virt.   53  a2   0.05396 X
     Occ.   46  b2  ---  Virt.   50  b2  -0.13784 X
     Occ.   46  b2  ---  Virt.   52  b2  -0.14269 X
     Occ.   46  b2  ---  Virt.   58  b2  -0.10206 X
     Occ.   47  b2  ---  Virt.   50  b2   0.05096 X
     Occ.   47  b2  ---  Virt.   52  b2  -0.12901 X
     Occ.   48  a2  ---  Virt.   53  a2  -0.10675 X
     Occ.   49  a2  ---  Virt.   51  a2  -0.95366 X
     Occ.   49  a2  ---  Virt.   51  a2  -0.06442 Y

              Target root =      1
          Target symmetry = none
      Ground state energy =   -681.702189380699
        Excitation energy =      0.058710021538
     Excited state energy =   -681.643479359161

  stored tddft:energy   -681.64347935916101     

 Task  times  cpu:    66458.8s     wall:    44964.2s
 Summary of allocated global arrays
-----------------------------------
  No active global arrays



                         GA Statistics for process    0
                         ------------------------------

       create   destroy   get      put      acc     scatter   gather  read&inc
calls: 5757     5611     1.73e+08 1.07e+07 1.60e+08  695        0     1.25e+06 
number of processes/call 0.00e+00 0.00e+00 0.00e+00 0.00e+00 0.00e+00
bytes total:             5.89e+11 1.82e+10 7.88e+11 1.81e+06 0.00e+00 1.00e+07
bytes remote:            0.00e+00 0.00e+00 0.00e+00 0.00e+00 0.00e+00 0.00e+00
Max memory consumed for GA by this process: 2650192048 bytes
MA_summarize_allocated_blocks: starting scan ...
MA_summarize_allocated_blocks: scan completed: 0 heap blocks, 0 stack blocks
MA usage statistics:

	allocation statistics:
					      heap	     stack
					      ----	     -----
	current number of blocks	         0	         0
	maximum number of blocks	        29	        61
	current total bytes		         0	         0
	maximum total bytes		  61611024	 114883352
	maximum total K-bytes		     61612	    114884
	maximum total M-bytes		        62	       115


                                NWChem Input Module
                                -------------------





                                     CITATION
                                     --------
                Please cite the following reference when publishing
                           results obtained with NWChem:

          E. Apr, E. J. Bylaska, W. A. de Jong, N. Govind, K. Kowalski,
       T. P. Straatsma, M. Valiev, H. J. J. van Dam, Y. Alexeev, J. Anchell,
       V. Anisimov, F. W. Aquino, R. Atta-Fynn, J. Autschbach, N. P. Bauman,
     J. C. Becca, D. E. Bernholdt, K. Bhaskaran-Nair, S. Bogatko, P. Borowski,
        J. Boschen, J. Brabec, A. Bruner, E. Caut, Y. Chen, G. N. Chuev,
      C. J. Cramer, J. Daily, M. J. O. Deegan, T. H. Dunning Jr., M. Dupuis,
   K. G. Dyall, G. I. Fann, S. A. Fischer, A. Fonari, H. Frchtl, L. Gagliardi,
      J. Garza, N. Gawande, S. Ghosh, K. Glaesemann, A. W. Gtz, J. Hammond,
       V. Helms, E. D. Hermes, K. Hirao, S. Hirata, M. Jacquelin, L. Jensen,
   B. G. Johnson, H. Jnsson, R. A. Kendall, M. Klemm, R. Kobayashi, V. Konkov,
      S. Krishnamoorthy, M. Krishnan, Z. Lin, R. D. Lins, R. J. Littlefield,
      A. J. Logsdail, K. Lopata, W. Ma, A. V. Marenich, J. Martin del Campo,
   D. Mejia-Rodriguez, J. E. Moore, J. M. Mullin, T. Nakajima, D. R. Nascimento,
    J. A. Nichols, P. J. Nichols, J. Nieplocha, A. Otero-de-la-Roza, B. Palmer,
    A. Panyala, T. Pirojsirikul, B. Peng, R. Peverati, J. Pittner, L. Pollack,
   R. M. Richard, P. Sadayappan, G. C. Schatz, W. A. Shelton, D. W. Silverstein,
   D. M. A. Smith, T. A. Soares, D. Song, M. Swart, H. L. Taylor, G. S. Thomas,
            V. Tipparaju, D. G. Truhlar, K. Tsemekhman, T. Van Voorhis,
     . Vzquez-Mayagoitia, P. Verma, O. Villa, A. Vishnu, K. D. Vogiatzis,
        D. Wang, J. H. Weare, M. J. Williamson, T. L. Windus, K. Woliski,
        A. T. Wong, Q. Wu, C. Yang, Q. Yu, M. Zacharias, Z. Zhang, Y. Zhao,
                                and R. J. Harrison
                        "NWChem: Past, present, and future
                         J. Chem. Phys. 152, 184102 (2020)
                               doi:10.1063/5.0004997

                                      AUTHORS
                                      -------
     E. Apra, E. J. Bylaska, N. Govind, K. Kowalski, M. Valiev, W. A. de Jong,
      T. P. Straatsma, H. J. J. van Dam, D. Wang, T. L. Windus, N. P. Bauman,
       A. Panyala, J. Hammond, J. Autschbach, K. Bhaskaran-Nair, J. Brabec,
    K. Lopata, S. A. Fischer, S. Krishnamoorthy, M. Jacquelin, W. Ma, M. Klemm,
       O. Villa, Y. Chen, V. Anisimov, F. Aquino, S. Hirata, M. T. Hackler,
           Eric Hermes, L. Jensen, J. E. Moore, J. C. Becca, V. Konjkov,
            D. Mejia-Rodriguez, T. Risthaus, M. Malagoli, A. Marenich,
   A. Otero-de-la-Roza, J. Mullin, P. Nichols, R. Peverati, J. Pittner, Y. Zhao,
        P.-D. Fan, A. Fonari, M. J. Williamson, R. J. Harrison, J. R. Rehr,
      M. Dupuis, D. Silverstein, D. M. A. Smith, J. Nieplocha, V. Tipparaju,
      M. Krishnan, B. E. Van Kuiken, A. Vazquez-Mayagoitia, M. Swart, Q. Wu,
   T. Van Voorhis, A. A. Auer, M. Nooijen, L. D. Crosby, E. Brown, G. Cisneros,
     G. I. Fann, H. Fruchtl, J. Garza, K. Hirao, R. A. Kendall, J. A. Nichols,
       K. Tsemekhman, K. Wolinski, J. Anchell, D. E. Bernholdt, P. Borowski,
       T. Clark, D. Clerc, H. Dachsel, M. J. O. Deegan, K. Dyall, D. Elwood,
      E. Glendening, M. Gutowski, A. C. Hess, J. Jaffe, B. G. Johnson, J. Ju,
        R. Kobayashi, R. Kutteh, Z. Lin, R. Littlefield, X. Long, B. Meng,
      T. Nakajima, S. Niu, L. Pollack, M. Rosing, K. Glaesemann, G. Sandrone,
      M. Stave, H. Taylor, G. Thomas, J. H. van Lenthe, A. T. Wong, Z. Zhang.

 Total times  cpu:    98592.1s     wall:    73985.6s
