 argument  1 = BODIPY3.in



============================== echo of input deck ==============================
# echo input file to output
echo
title "Excited State Calculation of BODIPY in Toluene with Dispersion Correction"
memory total 16 gb
scratch_dir /tmp

# Charge of the system
charge 0

# XYZ coordinates in Angstrom units
# Automatic symmetry detection enabled (default tol 0.01). Disable with noautosym.
geometry units angstroms autosym 0.1
B      0.000001   -1.162957    0.000644
N      1.246339   -0.240964    0.000674
C      2.517484   -0.619309    0.001360
C      3.356788    0.504376    0.001062
C      2.540488    1.611831   -0.000033
C      1.205532    1.138202   -0.000109
C      0.000244    1.821050   -0.000443
C     -1.205163    1.138396    0.000211
N     -1.246186   -0.240759    0.001038
C     -2.517394   -0.618905    0.001979
C     -3.356516    0.504912    0.001818
C     -2.540037    1.612241    0.000543
F      0.000115   -1.949817    1.129932
F     -0.000242   -1.949247   -1.129045
H      2.781890   -1.659490    0.002099
H      4.428486    0.483157    0.001574
H      2.831001    2.644047   -0.000553
H      0.000331    2.900662   -0.001206
H     -2.781963   -1.659043    0.002802
H     -4.428217    0.483869    0.002536
H     -2.830387    2.644502    0.000062
end

dft
  # Exchange-correlation functional
  xc b3lyp
  # Semidirect SCF. Cache integrals in memory, but do not use disk
  # 130 megawords is ~1000 megabytes for 64-bit machines
  semidirect memsize 130000000 filesize 0
  # For completely direct SCF without caching, use
  #direct

  # Spin multiplicity 2S + 1, where S = 0, 1/2, 1, 3/2, ...
  mult 1
  # For open-shell singlet calculation, add
  #odft

  # Reduce output during geometry optimization
  noprint "final vectors analysis"

  # Increase the number of SCF iterations
  iterations 100
end


# Basis set definitions
basis spherical
  * library def2-tzvp
end
ecp
  Pt library def2-ecp
end

# Options for the geometry optimizer
driver
  # Max 100 optimization steps
  maxiter 100
  # Print XYZ coordinates of each step
  xyz
end

# Optimize geometry
task dft optimize

# Run property calculation after the geometry optimization to
# create Molden file for plotting molecular orbitals
property
  moldenfile
  molden_norm none
end

task dft property

# Excited state calculation
tddft
  singlets 5  # Number of singlet excited states to calculate
  triplets 5  # Number of triplet excited states to calculate
end

# Additional settings and output specifications
task tddft energy

================================================================================


                                         
                                         


             Northwest Computational Chemistry Package (NWChem) 7.0.2
             --------------------------------------------------------


                    Environmental Molecular Sciences Laboratory
                       Pacific Northwest National Laboratory
                                Richland, WA 99352

                              Copyright (c) 1994-2020
                       Pacific Northwest National Laboratory
                            Battelle Memorial Institute

             NWChem is an open-source computational chemistry package
                        distributed under the terms of the
                      Educational Community License (ECL) 2.0
             A copy of the license is included with this distribution
                              in the LICENSE.TXT file

                                  ACKNOWLEDGMENT
                                  --------------

            This software and its documentation were developed at the
            EMSL at Pacific Northwest National Laboratory, a multiprogram
            national laboratory, operated for the U.S. Department of Energy
            by Battelle under Contract Number DE-AC05-76RL01830. Support
            for this work was provided by the Department of Energy Office
            of Biological and Environmental Research, Office of Basic
            Energy Sciences, and the Office of Advanced Scientific Computing.


           Job information
           ---------------

    hostname        = taamangtchu-Aspire-A515-45
    program         = nwchem
    date            = Fri Jun 28 09:32:14 2024

    compiled        = Sat_Apr_09_17:12:10_2022
    source          = /build/nwchem-f1f4gx/nwchem-7.0.2/build-openmpi
    nwchem branch   = 7.0.2
    nwchem revision = N/A
    ga revision     = 5.8.1
    use scalapack   = T
    input           = BODIPY3.in
    prefix          = BODIPY3.
    data base       = ./BODIPY3.db
    status          = startup
    nproc           =        1
    time left       =     -1s



           Memory information
           ------------------

    heap     =  536870906 doubles =   4096.0 Mbytes
    stack    =  536870911 doubles =   4096.0 Mbytes
    global   = 1073741824 doubles =   8192.0 Mbytes (distinct from heap & stack)
    total    = 2147483641 doubles =  16384.0 Mbytes
    verify   = yes
    hardfail = no 


           Directory information
           ---------------------

  0 permanent = .
  0 scratch   = /tmp




                                NWChem Input Module
                                -------------------


     Excited State Calculation of BODIPY in Toluene with Dispersion Correction
     -------------------------------------------------------------------------

 Scaling coordinates for geometry "geometry" by  1.889725989
 (inverse scale =  0.529177249)

 C2V symmetry detected

          ------
          auto-z
          ------
  no constraints, skipping    0.0000000000000000     
  no constraints, skipping    0.0000000000000000     


                             Geometry "geometry" -> ""
                             -------------------------

 Output coordinates in angstroms (scale by  1.889725989 to convert to a.u.)

  No.       Tag          Charge          X              Y              Z
 ---- ---------------- ---------- -------------- -------------- --------------
    1 B                    5.0000     0.00000000     0.00000000    -1.20495742
    2 N                    7.0000    -1.24626252     0.00000000    -0.28286200
    3 C                    6.0000    -2.51743903     0.00000000    -0.66110770
    4 C                    6.0000    -3.35665203     0.00000000     0.46264333
    5 C                    6.0000    -2.54026252     0.00000000     1.57003560
    6 C                    6.0000    -1.20534751     0.00000000     1.09629866
    7 C                    6.0000     0.00000000     0.00000000     1.77904977
    8 C                    6.0000     1.20534751     0.00000000     1.09629866
    9 N                    7.0000     1.24626252     0.00000000    -0.28286200
   10 C                    6.0000     2.51743903     0.00000000    -0.66110770
   11 C                    6.0000     3.35665203     0.00000000     0.46264333
   12 C                    6.0000     2.54026252     0.00000000     1.57003560
   13 F                    9.0000     0.00000000     1.12948840    -1.99153234
   14 F                    9.0000     0.00000000    -1.12948840    -1.99153234
   15 H                    1.0000    -2.78192653     0.00000000    -1.70126737
   16 H                    1.0000    -4.42835154     0.00000000     0.44151217
   17 H                    1.0000    -2.83069403     0.00000000     2.60227420
   18 H                    1.0000     0.00000000     0.00000000     2.85866193
   19 H                    1.0000     2.78192653     0.00000000    -1.70126737
   20 H                    1.0000     4.42835154     0.00000000     0.44151217
   21 H                    1.0000     2.83069403     0.00000000     2.60227420

      Atomic Mass 
      ----------- 

      B                 11.009310
      N                 14.003070
      C                 12.000000
      F                 18.998400
      H                  1.007825


 Effective nuclear repulsion energy (a.u.)     866.7103807726

            Nuclear Dipole moment (a.u.) 
            ----------------------------
        X                 Y               Z
 ---------------- ---------------- ----------------
    -0.0000000000     0.0000000000    -0.0000000000

      Symmetry information
      --------------------

 Group name             C2v       
 Group number             16
 Group order               4
 No. of unique centers    12

      Symmetry unique atoms

     1    2    3    4    5    6    7   13   15   16   17   18



                                Z-matrix (autoz)
                                -------- 

 Units are Angstrom for bonds and degrees for angles

      Type          Name      I     J     K     L     M      Value
      ----------- --------  ----- ----- ----- ----- ----- ----------
    1 Stretch                  1     2                       1.55030
    2 Stretch                  1     9                       1.55030
    3 Stretch                  1    13                       1.37639
    4 Stretch                  1    14                       1.37639
    5 Stretch                  2     3                       1.32626
    6 Stretch                  2     6                       1.37977
    7 Stretch                  3     4                       1.40253
    8 Stretch                  3    15                       1.07326
    9 Stretch                  4     5                       1.37579
   10 Stretch                  4    16                       1.07191
   11 Stretch                  5     6                       1.41648
   12 Stretch                  5    17                       1.07232
   13 Stretch                  6     7                       1.38528
   14 Stretch                  7     8                       1.38528
   15 Stretch                  7    18                       1.07961
   16 Stretch                  8     9                       1.37977
   17 Stretch                  8    12                       1.41648
   18 Stretch                  9    10                       1.32626
   19 Stretch                 10    11                       1.40253
   20 Stretch                 10    19                       1.07326
   21 Stretch                 11    12                       1.37579
   22 Stretch                 11    20                       1.07191
   23 Stretch                 12    21                       1.07232
   24 Bend                     1     2     3               126.93202
   25 Bend                     1     2     6               124.79804
   26 Bend                     1     9     8               124.79804
   27 Bend                     1     9    10               126.93202
   28 Bend                     2     1     9               107.00537
   29 Bend                     2     1    13               109.87117
   30 Bend                     2     1    14               109.87117
   31 Bend                     2     3     4               110.18157
   32 Bend                     2     3    15               120.83726
   33 Bend                     2     6     5               107.83957
   34 Bend                     2     6     7               121.22801
   35 Bend                     3     2     6               108.26994
   36 Bend                     3     4     5               106.84946
   37 Bend                     3     4    16               125.62266
   38 Bend                     4     3    15               128.98118
   39 Bend                     4     5     6               106.85946
   40 Bend                     4     5    17               127.88717
   41 Bend                     5     4    16               127.52789
   42 Bend                     5     6     7               130.93242
   43 Bend                     6     5    17               125.25337
   44 Bend                     6     7     8               120.94253
   45 Bend                     6     7    18               119.52874
   46 Bend                     7     8     9               121.22801
   47 Bend                     7     8    12               130.93242
   48 Bend                     8     7    18               119.52874
   49 Bend                     8     9    10               108.26994
   50 Bend                     8    12    11               106.85946
   51 Bend                     8    12    21               125.25337
   52 Bend                     9     1    13               109.87117
   53 Bend                     9     1    14               109.87117
   54 Bend                     9     8    12               107.83957
   55 Bend                     9    10    11               110.18157
   56 Bend                     9    10    19               120.83726
   57 Bend                    10    11    12               106.84946
   58 Bend                    10    11    20               125.62266
   59 Bend                    11    10    19               128.98118
   60 Bend                    11    12    21               127.88717
   61 Bend                    12    11    20               127.52789
   62 Bend                    13     1    14               110.29335
   63 Torsion                  1     2     3     4         180.00000
   64 Torsion                  1     2     3    15           0.00000
   65 Torsion                  1     2     6     5         180.00000
   66 Torsion                  1     2     6     7           0.00000
   67 Torsion                  1     9     8     7           0.00000
   68 Torsion                  1     9     8    12         180.00000
   69 Torsion                  1     9    10    11         180.00000
   70 Torsion                  1     9    10    19           0.00000
   71 Torsion                  2     1     9     8           0.00000
   72 Torsion                  2     1     9    10         180.00000
   73 Torsion                  2     3     4     5           0.00000
   74 Torsion                  2     3     4    16         180.00000
   75 Torsion                  2     6     5     4          -0.00000
   76 Torsion                  2     6     5    17         180.00000
   77 Torsion                  2     6     7     8           0.00000
   78 Torsion                  2     6     7    18         180.00000
   79 Torsion                  3     2     1     9         180.00000
   80 Torsion                  3     2     1    13          60.75882
   81 Torsion                  3     2     1    14         -60.75882
   82 Torsion                  3     2     6     5           0.00000
   83 Torsion                  3     2     6     7         180.00000
   84 Torsion                  3     4     5     6           0.00000
   85 Torsion                  3     4     5    17         180.00000
   86 Torsion                  4     3     2     6           0.00000
   87 Torsion                  4     5     6     7         180.00000
   88 Torsion                  5     4     3    15         180.00000
   89 Torsion                  5     6     7     8         180.00000
   90 Torsion                  5     6     7    18           0.00000
   91 Torsion                  6     2     1     9          -0.00000
   92 Torsion                  6     2     1    13        -119.24118
   93 Torsion                  6     2     1    14         119.24118
   94 Torsion                  6     2     3    15         180.00000
   95 Torsion                  6     5     4    16         180.00000
   96 Torsion                  6     7     8     9           0.00000
   97 Torsion                  6     7     8    12         180.00000
   98 Torsion                  7     6     5    17           0.00000
   99 Torsion                  7     8     9    10         180.00000
  100 Torsion                  7     8    12    11         180.00000
  101 Torsion                  7     8    12    21           0.00000
  102 Torsion                  8     9     1    13         119.24118
  103 Torsion                  8     9     1    14        -119.24118
  104 Torsion                  8     9    10    11           0.00000
  105 Torsion                  8     9    10    19         180.00000
  106 Torsion                  8    12    11    10           0.00000
  107 Torsion                  8    12    11    20         180.00000
  108 Torsion                  9     8     7    18         180.00000
  109 Torsion                  9     8    12    11           0.00000
  110 Torsion                  9     8    12    21         180.00000
  111 Torsion                  9    10    11    12           0.00000
  112 Torsion                  9    10    11    20         180.00000
  113 Torsion                 10     9     1    13         -60.75882
  114 Torsion                 10     9     1    14          60.75882
  115 Torsion                 10     9     8    12           0.00000
  116 Torsion                 10    11    12    21         180.00000
  117 Torsion                 12     8     7    18           0.00000
  118 Torsion                 12    11    10    19         180.00000
  119 Torsion                 15     3     4    16          -0.00000
  120 Torsion                 16     4     5    17           0.00000
  121 Torsion                 19    10    11    20           0.00000
  122 Torsion                 20    11    12    21           0.00000


            XYZ format geometry
            -------------------
    21
 geometry
 B                     0.00000000     0.00000000    -1.20495742
 N                    -1.24626252     0.00000000    -0.28286200
 C                    -2.51743903     0.00000000    -0.66110770
 C                    -3.35665203     0.00000000     0.46264333
 C                    -2.54026252     0.00000000     1.57003560
 C                    -1.20534751     0.00000000     1.09629866
 C                     0.00000000     0.00000000     1.77904977
 C                     1.20534751     0.00000000     1.09629866
 N                     1.24626252     0.00000000    -0.28286200
 C                     2.51743903     0.00000000    -0.66110770
 C                     3.35665203     0.00000000     0.46264333
 C                     2.54026252     0.00000000     1.57003560
 F                     0.00000000     1.12948840    -1.99153234
 F                     0.00000000    -1.12948840    -1.99153234
 H                    -2.78192653     0.00000000    -1.70126737
 H                    -4.42835154     0.00000000     0.44151217
 H                    -2.83069403     0.00000000     2.60227420
 H                     0.00000000     0.00000000     2.85866193
 H                     2.78192653     0.00000000    -1.70126737
 H                     4.42835154     0.00000000     0.44151217
 H                     2.83069403     0.00000000     2.60227420

 ==============================================================================
                                internuclear distances
 ------------------------------------------------------------------------------
       center one      |      center two      | atomic units |  angstroms
 ------------------------------------------------------------------------------
    2 N                |   1 B                |     2.92964  |     1.55030
    3 C                |   2 N                |     2.50626  |     1.32626
    4 C                |   3 C                |     2.65040  |     1.40253
    5 C                |   4 C                |     2.59987  |     1.37579
    6 C                |   2 N                |     2.60738  |     1.37977
    6 C                |   5 C                |     2.67677  |     1.41648
    7 C                |   6 C                |     2.61781  |     1.38528
    8 C                |   7 C                |     2.61781  |     1.38528
    9 N                |   1 B                |     2.92964  |     1.55030
    9 N                |   8 C                |     2.60738  |     1.37977
   10 C                |   9 N                |     2.50626  |     1.32626
   11 C                |  10 C                |     2.65040  |     1.40253
   12 C                |   8 C                |     2.67677  |     1.41648
   12 C                |  11 C                |     2.59987  |     1.37579
   13 F                |   1 B                |     2.60100  |     1.37639
   14 F                |   1 B                |     2.60100  |     1.37639
   15 H                |   3 C                |     2.02817  |     1.07326
   16 H                |   4 C                |     2.02561  |     1.07191
   17 H                |   5 C                |     2.02639  |     1.07232
   18 H                |   7 C                |     2.04017  |     1.07961
   19 H                |  10 C                |     2.02817  |     1.07326
   20 H                |  11 C                |     2.02561  |     1.07191
   21 H                |  12 C                |     2.02639  |     1.07232
 ------------------------------------------------------------------------------
                         number of included internuclear distances:         23
 ==============================================================================



 ==============================================================================
                                 internuclear angles
 ------------------------------------------------------------------------------
        center 1       |       center 2       |       center 3       |  degrees
 ------------------------------------------------------------------------------
    2 N                |   1 B                |   9 N                |   107.01
    2 N                |   1 B                |  13 F                |   109.87
    2 N                |   1 B                |  14 F                |   109.87
    9 N                |   1 B                |  13 F                |   109.87
    9 N                |   1 B                |  14 F                |   109.87
   13 F                |   1 B                |  14 F                |   110.29
    1 B                |   2 N                |   3 C                |   126.93
    1 B                |   2 N                |   6 C                |   124.80
    3 C                |   2 N                |   6 C                |   108.27
    2 N                |   3 C                |   4 C                |   110.18
    2 N                |   3 C                |  15 H                |   120.84
    4 C                |   3 C                |  15 H                |   128.98
    3 C                |   4 C                |   5 C                |   106.85
    3 C                |   4 C                |  16 H                |   125.62
    5 C                |   4 C                |  16 H                |   127.53
    4 C                |   5 C                |   6 C                |   106.86
    4 C                |   5 C                |  17 H                |   127.89
    6 C                |   5 C                |  17 H                |   125.25
    2 N                |   6 C                |   5 C                |   107.84
    2 N                |   6 C                |   7 C                |   121.23
    5 C                |   6 C                |   7 C                |   130.93
    6 C                |   7 C                |   8 C                |   120.94
    6 C                |   7 C                |  18 H                |   119.53
    8 C                |   7 C                |  18 H                |   119.53
    7 C                |   8 C                |   9 N                |   121.23
    7 C                |   8 C                |  12 C                |   130.93
    9 N                |   8 C                |  12 C                |   107.84
    1 B                |   9 N                |   8 C                |   124.80
    1 B                |   9 N                |  10 C                |   126.93
    8 C                |   9 N                |  10 C                |   108.27
    9 N                |  10 C                |  11 C                |   110.18
    9 N                |  10 C                |  19 H                |   120.84
   11 C                |  10 C                |  19 H                |   128.98
   10 C                |  11 C                |  12 C                |   106.85
   10 C                |  11 C                |  20 H                |   125.62
   12 C                |  11 C                |  20 H                |   127.53
    8 C                |  12 C                |  11 C                |   106.86
    8 C                |  12 C                |  21 H                |   125.25
   11 C                |  12 C                |  21 H                |   127.89
 ------------------------------------------------------------------------------
                            number of included internuclear angles:         39
 ==============================================================================





 Summary of "ao basis" -> "" (spherical)
 ------------------------------------------------------------------------------
       Tag                 Description            Shells   Functions and Types
 ---------------- ------------------------------  ------  ---------------------
 *                         def2-tzvp                  on all atoms 


                 ECP       "ecp basis" -> "" (cartesian)
                -----
  Pt (Platinum) Replaces    60 electrons
  --------------------------------------
             Channel    R-exponent     Exponent     Coefficients
         ------------ ---------------------------------------------------------
  1 U L       Both         2.00        3.309569      24.314376

  2 U-s       Both         2.00       13.428651     579.223861
  2 U-s       Both         2.00        6.714326      29.669491
  2 U-s       Both         2.00        3.309569     -24.314376

  3 U-p       Both         2.00       10.365944     280.860774
  3 U-p       Both         2.00        5.182972      26.745382
  3 U-p       Both         2.00        3.309569     -24.314376

  4 U-d       Both         2.00        7.600479     120.396444
  4 U-d       Both         2.00        3.800240      15.810921
  4 U-d       Both         2.00        3.309569     -24.314376



                           NWChem Geometry Optimization
                           ----------------------------




     Excited State Calculation of BODIPY in Toluene with Dispersion Correction


  no constraints, skipping    0.0000000000000000     
 maximum gradient threshold         (gmax) =   0.000450
 rms gradient threshold             (grms) =   0.000300
 maximum cartesian step threshold   (xmax) =   0.001800
 rms cartesian step threshold       (xrms) =   0.001200
 fixed trust radius                (trust) =   0.300000
 maximum step size to saddle      (sadstp) =   0.100000
 energy precision                  (eprec) =   5.0D-06
 maximum number of steps          (nptopt) =  100
 initial hessian option           (inhess) =    0
 line search option               (linopt) =    1
 hessian update option            (modupd) =    1
 saddle point option              (modsad) =    0
 initial eigen-mode to follow     (moddir) =    0
 initial variable to follow       (vardir) =    0
 follow first negative mode     (firstneg) =    T
 apply conjugacy                    (opcg) =    F
 source of zmatrix                         =   autoz   


          -------------------
          Energy Minimization
          -------------------


 Names of Z-matrix variables 
    1              2              3              4              5         
    6              7              8              9             10         
   11             12             13             14             15         
   16             17             18             19             20         
   21             22             23             24             25         
   26             27             28             29             30         
   31             32             33             34             35         
   36             37             38             39             40         
   41             42             43             44             45         
   46             47             48             49             50         
   51             52             53             54             55         
   56             57             58             59             60         
   61             62             63             64             65         
   66             67             68             69             70         
   71             72             73             74             75         
   76             77             78             79             80         
   81             82             83             84             85         
   86             87             88             89             90         
   91             92             93             94             95         
   96             97             98             99            100         
  101            102            103            104            105         
  106            107            108            109            110         
  111            112            113            114            115         
  116            117            118            119            120         
  121            122         

 Variables with the same non-blank name are constrained to be equal


 Using diagonal initial Hessian 
 Scaling for Hessian diagonals: bonds = 1.00  angles = 0.25  torsions = 0.10

          --------
          Step   0
          --------


                         Geometry "geometry" -> "geometry"
                         ---------------------------------

 Output coordinates in angstroms (scale by  1.889725989 to convert to a.u.)

  No.       Tag          Charge          X              Y              Z
 ---- ---------------- ---------- -------------- -------------- --------------
    1 B                    5.0000     0.00000000     0.00000000    -1.20495742
    2 N                    7.0000    -1.24626252     0.00000000    -0.28286200
    3 C                    6.0000    -2.51743903     0.00000000    -0.66110770
    4 C                    6.0000    -3.35665203     0.00000000     0.46264333
    5 C                    6.0000    -2.54026252     0.00000000     1.57003560
    6 C                    6.0000    -1.20534751     0.00000000     1.09629866
    7 C                    6.0000     0.00000000     0.00000000     1.77904977
    8 C                    6.0000     1.20534751     0.00000000     1.09629866
    9 N                    7.0000     1.24626252     0.00000000    -0.28286200
   10 C                    6.0000     2.51743903     0.00000000    -0.66110770
   11 C                    6.0000     3.35665203     0.00000000     0.46264333
   12 C                    6.0000     2.54026252     0.00000000     1.57003560
   13 F                    9.0000     0.00000000     1.12948840    -1.99153234
   14 F                    9.0000     0.00000000    -1.12948840    -1.99153234
   15 H                    1.0000    -2.78192653     0.00000000    -1.70126737
   16 H                    1.0000    -4.42835154     0.00000000     0.44151217
   17 H                    1.0000    -2.83069403     0.00000000     2.60227420
   18 H                    1.0000     0.00000000     0.00000000     2.85866193
   19 H                    1.0000     2.78192653     0.00000000    -1.70126737
   20 H                    1.0000     4.42835154     0.00000000     0.44151217
   21 H                    1.0000     2.83069403     0.00000000     2.60227420

      Atomic Mass 
      ----------- 

      B                 11.009310
      N                 14.003070
      C                 12.000000
      F                 18.998400
      H                  1.007825


 Effective nuclear repulsion energy (a.u.)     866.7103807726

            Nuclear Dipole moment (a.u.) 
            ----------------------------
        X                 Y               Z
 ---------------- ---------------- ----------------
    -0.0000000000     0.0000000000    -0.0000000000

      Symmetry information
      --------------------

 Group name             C2v       
 Group number             16
 Group order               4
 No. of unique centers    12

      Symmetry unique atoms

     1    2    3    4    5    6    7   13   15   16   17   18


                                 NWChem DFT Module
                                 -----------------


     Excited State Calculation of BODIPY in Toluene with Dispersion Correction


                      Basis "ao basis" -> "ao basis" (spherical)
                      -----
  B (Boron)
  ---------
            Exponent  Coefficients 
       -------------- ---------------------------------------------------------
  1 S  8.56486607E+03  0.000228
  1 S  1.28415163E+03  0.001768
  1 S  2.92278716E+02  0.009141
  1 S  8.27754692E+01  0.036343
  1 S  2.70179393E+01  0.110635
  1 S  9.81496197E+00  0.233673

  2 S  3.93185591E+00  0.418188
  2 S  1.65955997E+00  0.223255

  3 S  3.57629652E-01  1.000000

  4 S  1.42462775E-01  1.000000

  5 S  6.05605948E-02  1.000000

  6 P  2.24538758E+01  0.005027
  6 P  5.10450583E+00  0.032802
  6 P  1.49860813E+00  0.131512
  6 P  5.09278313E-01  0.331972

  7 P  1.81470778E-01  1.000000

  8 P  6.46218939E-02  1.000000

  9 D  6.61000000E-01  1.000000

 10 D  1.99000000E-01  1.000000

 11 F  4.90000000E-01  1.000000

  N (Nitrogen)
  ------------
            Exponent  Coefficients 
       -------------- ---------------------------------------------------------
  1 S  1.97308006E+04  0.000219
  1 S  2.95789587E+03  0.001696
  1 S  6.73221336E+02  0.008795
  1 S  1.90682495E+02  0.035359
  1 S  6.22954419E+01  0.110958
  1 S  2.26541612E+01  0.249830

  2 S  8.97914774E+00  0.406239
  2 S  3.68630024E+00  0.243382

  3 S  8.46600768E-01  1.000000

  4 S  3.36471338E-01  1.000000

  5 S  1.36476537E-01  1.000000

  6 P  4.92003805E+01  0.005555
  6 P  1.13467905E+01  0.038052
  6 P  3.42739724E+00  0.149537
  6 P  1.17855251E+00  0.349493

  7 P  4.16422050E-01  1.000000

  8 P  1.42608260E-01  1.000000

  9 D  1.65400000E+00  1.000000

 10 D  4.69000000E-01  1.000000

 11 F  1.09300000E+00  1.000000

  C (Carbon)
  ----------
            Exponent  Coefficients 
       -------------- ---------------------------------------------------------
  1 S  1.35753497E+04  0.000222
  1 S  2.03523337E+03  0.001723
  1 S  4.63225624E+02  0.008926
  1 S  1.31200196E+02  0.035728
  1 S  4.28530159E+01  0.110763
  1 S  1.55841858E+01  0.242956

  2 S  6.20671385E+00  0.414403
  2 S  2.57648965E+00  0.237450

  3 S  5.76963394E-01  1.000000

  4 S  2.29728314E-01  1.000000

  5 S  9.51644400E-02  1.000000

  6 P  3.46972322E+01  0.005333
  6 P  7.95826228E+00  0.035864
  6 P  2.37808269E+00  0.142159
  6 P  8.14332082E-01  0.342705

  7 P  2.88875473E-01  1.000000

  8 P  1.00568237E-01  1.000000

  9 D  1.09700000E+00  1.000000

 10 D  3.18000000E-01  1.000000

 11 F  7.61000000E-01  1.000000

  F (Fluorine)
  ------------
            Exponent  Coefficients 
       -------------- ---------------------------------------------------------
  1 S  3.54791004E+04  0.000215
  1 S  5.31847290E+03  0.001670
  1 S  1.21048110E+03  0.008673
  1 S  3.42855181E+02  0.035050
  1 S  1.12019432E+02  0.111653
  1 S  4.07147402E+01  0.259885

  2 S  1.60396781E+01  0.394230
  2 S  6.50381867E+00  0.249982

  3 S  1.54404775E+00  1.000000

  4 S  6.12234529E-01  1.000000

  5 S  2.40279797E-01  1.000000

  6 P  8.02339005E+01  0.006369
  6 P  1.85940107E+01  0.044303
  6 P  5.68679027E+00  0.168672
  6 P  1.95110063E+00  0.361663

  7 P  6.69702113E-01  1.000000

  8 P  2.16513004E-01  1.000000

  9 D  3.10700000E+00  1.000000

 10 D  8.55000000E-01  1.000000

 11 F  1.91700000E+00  1.000000

  H (Hydrogen)
  ------------
            Exponent  Coefficients 
       -------------- ---------------------------------------------------------
  1 S  3.40613410E+01  0.006025
  1 S  5.12357460E+00  0.045021
  1 S  1.16466260E+00  0.201897

  2 S  3.27230410E-01  1.000000

  3 S  1.03072410E-01  1.000000

  4 P  8.00000000E-01  1.000000



 Summary of "ao basis" -> "ao basis" (spherical)
 ------------------------------------------------------------------------------
       Tag                 Description            Shells   Functions and Types
 ---------------- ------------------------------  ------  ---------------------
 B                         def2-tzvp                11       31   5s3p2d1f
 N                         def2-tzvp                11       31   5s3p2d1f
 C                         def2-tzvp                11       31   5s3p2d1f
 F                         def2-tzvp                11       31   5s3p2d1f
 H                         def2-tzvp                 4        6   3s1p




 Summary of "ao basis" -> "ao basis" (spherical)
 ------------------------------------------------------------------------------
       Tag                 Description            Shells   Functions and Types
 ---------------- ------------------------------  ------  ---------------------
 B                         def2-tzvp                11       31   5s3p2d1f
 N                         def2-tzvp                11       31   5s3p2d1f
 C                         def2-tzvp                11       31   5s3p2d1f
 F                         def2-tzvp                11       31   5s3p2d1f
 H                         def2-tzvp                 4        6   3s1p


      Symmetry analysis of basis
      --------------------------

        a1        173
        a2         69
        b1        145
        b2         89

  Caching 1-el integrals 

            General Information
            -------------------
          SCF calculation type: DFT
          Wavefunction type:  closed shell.
          No. of atoms     :    21
          No. of electrons :    98
           Alpha electrons :    49
            Beta electrons :    49
          Charge           :     0
          Spin multiplicity:     1
          Use of symmetry is: on ; symmetry adaption is: on 
          Maximum number of iterations: 100
          AO basis - number of functions:   476
                     number of shells:   182
          Convergence on energy requested:  1.00D-06
          Convergence on density requested:  1.00D-05
          Convergence on gradient requested:  5.00D-04

              XC Information
              --------------
                         B3LYP Method XC Potential
                     Hartree-Fock (Exact) Exchange  0.200          
                        Slater Exchange Functional  0.800 local    
                    Becke 1988 Exchange Functional  0.720 non-local
              Lee-Yang-Parr Correlation Functional  0.810          
                  VWN I RPA Correlation Functional  0.190 local    

             Grid Information
             ----------------
          Grid used for XC integration:  medium    
          Radial quadrature: Mura-Knowles        
          Angular quadrature: Lebedev. 
          Tag              B.-S. Rad. Rad. Pts. Rad. Cut. Ang. Pts.
          ---              ---------- --------- --------- ---------
          B                   0.85       49          12.0       434
          N                   0.65       49          14.0       434
          C                   0.70       49          17.0       434
          F                   0.50       49          13.0       434
          H                   0.35       45          17.0       434
          Grid pruning is: on 
          Number of quadrature shells:   572
          Spatial weights used:  Erf1

          Convergence Information
          -----------------------
          Convergence aids based upon iterative change in 
          total energy or number of iterations. 
          Levelshifting, if invoked, occurs when the 
          HOMO/LUMO gap drops below (HL_TOL):  1.00D-02
          DIIS, if invoked, will attempt to extrapolate 
          using up to (NFOCK): 10 stored Fock matrices.

                    Damping( 0%)  Levelshifting(0.5)       DIIS
                  --------------- ------------------- ---------------
          dE  on:    start            ASAP                start   
          dE off:    2 iters        100 iters           100 iters 


      Screening Tolerance Information
      -------------------------------
          Density screening/tol_rho:  1.00D-10
          AO Gaussian exp screening on grid/accAOfunc:  14
          CD Gaussian exp screening on grid/accCDfunc:  20
          XC Gaussian exp screening on grid/accXCfunc:  20
          Schwarz screening/accCoul:  1.00D-08


      Superposition of Atomic Density Guess
      -------------------------------------

 Sum of atomic energies:        -674.53459142

 #quartets = 1.956D+06 #integrals = 2.699D+07 #direct = 99.8% #cached =  0.2%


 Integral file          = /tmp/BODIPY3.aoints.0
 Record size in doubles =  65536        No. of integs per rec  =  43688
 Max. records in memory =      0        Max. records in file   =      0
 No. of bits per label  =     16        No. of bits per value  =     32


      Non-variational initial energy
      ------------------------------

 Total energy =    -684.072703
 1-e energy   =   -2640.928784
 2-e energy   =    1090.145701
 HOMO         =      -0.546587
 LUMO         =      -0.535415


      Symmetry analysis of molecular orbitals - initial
      -------------------------------------------------

  Numbering of irreducible representations: 

     1 a1          2 a2          3 b1          4 b2      

  Orbital symmetries:

     1 a1          2 b1          3 a1          4 b2          5 a1      
     6 a1          7 b1          8 b1          9 a1         10 b1      
    11 a1         12 b1         13 a1         14 a1         15 a1      
    16 b1         17 b1         18 a1         19 a1         20 b1      
    21 a1         22 b1         23 a1         24 a1         25 b1      
    26 a1         27 b2         28 a1         29 a1         30 b1      
    31 b1         32 a1         33 b1         34 a1         35 a1      
    36 a1         37 b1         38 b1         39 a1         40 b2      
    41 b1         42 a1         43 a1         44 b1         45 a2      
    46 b2         47 b2         48 a2         49 a1         50 a1      
    51 b1         52 a1         53 b1         54 a1         55 b1      
    56 a1         57 b1         58 b2         59 b2      


------------------------------------------------------------
EAF file 0: "/tmp/BODIPY3.aoints.0" size=524288 bytes
------------------------------------------------------------
               write      read    awrite     aread      wait
               -----      ----    ------     -----      ----
     calls:        1         0         0         0         0
   data(b): 5.24e+05  0.00e+00  0.00e+00  0.00e+00
   time(s): 0.00e+00  0.00e+00  0.00e+00  0.00e+00  0.00e+00
rate(mb/s): 0.00e+00  0.00e+00
------------------------------------------------------------

   Time after variat. SCF:      7.9

 Parallel integral file used       1 records with       0 large values

   Time prior to 1st pass:      7.9

 Integral file          = /tmp/BODIPY3.aoints.0
 Record size in doubles =  65536        No. of integs per rec  =  43688
 Max. records in memory =   1982        Max. records in file   =      0
 No. of bits per label  =     16        No. of bits per value  =     32


 #quartets = 3.709D+07 #integrals = 1.110D+09 #direct = 92.2% #cached =  7.8%


 Grid_pts file          = /tmp/BODIPY3.gridpts.0
 Record size in doubles =  12289        No. of grid_pts per rec  =   3070
 Max. records in memory =     90        Max. recs in file   =    580633

 Grid integrated density:      98.000590028756
 Requested integration accuracy:   0.10E-05

           Memory utilization after 1st SCF pass: 
           Heap Space remaining (MW):      405.86           405860026
          Stack Space remaining (MW):      536.87           536867868

   convergence    iter        energy       DeltaE   RMS-Dens  Diis-err    time
 ---------------- ----- ----------------- --------- --------- ---------  ------
 d= 0,ls=0.0,diis     1   -621.3734649526 -1.49D+03  1.66D+02  1.85D+02    97.5
 d= 0,ls=0.0,diis     2   -627.7838356700 -6.41D+00  2.51D-01  2.35D+02   154.6
 d= 0,ls=0.5,diis     3   -606.6248793362  2.12D+01  2.33D-01  5.31D+02   214.9
 d= 0,ls=0.5,diis     4   -665.3204727092 -5.87D+01  6.43D-02  1.35D+02   276.9
 d= 0,ls=0.5,diis     5   -673.1940738974 -7.87D+00  8.11D-02  5.02D+01   334.9
 d= 0,ls=0.5,diis     6   -680.2448009311 -7.05D+00  4.29D-03  1.08D+01   388.5
 d= 0,ls=0.5,diis     7   -681.4721847669 -1.23D+00  2.20D-03  6.23D-01   441.6
 d= 0,ls=0.5,diis     8   -681.6037603624 -1.32D-01  9.89D-04  9.12D-02   494.1
  Resetting Diis
 d= 0,ls=0.5,diis     9   -681.6317536207 -2.80D-02  5.37D-04  2.90D-02   546.7
 d= 0,ls=0.5,diis    10   -681.6418500176 -1.01D-02  2.57D-04  8.64D-03   599.6
 d= 0,ls=0.5,diis    11   -681.6457100599 -3.86D-03  1.51D-04  3.82D-03   654.9
 d= 0,ls=0.5,diis    12   -681.6472242428 -1.51D-03  1.16D-04  1.40D-03   707.9
 d= 0,ls=0.5,diis    13   -681.6478676939 -6.43D-04  6.49D-05  7.24D-04   761.7
 d= 0,ls=0.5,diis    14   -681.6481779113 -3.10D-04  4.16D-05  3.01D-04   816.8
 d= 0,ls=0.5,diis    15   -681.6483027896 -1.25D-04  2.57D-05  1.91D-04   870.4
 d= 0,ls=0.5,diis    16   -681.6483644081 -6.16D-05  1.64D-05  1.01D-04   923.1
 d= 0,ls=0.5,diis    17   -681.6483921191 -2.77D-05  1.01D-05  5.83D-05   976.1
 d= 0,ls=0.5,diis    18   -681.6484059164 -1.38D-05  6.63D-06  2.98D-05  1028.8
 d= 0,ls=0.5,diis    19   -681.6484122930 -6.38D-06  4.93D-06  1.65D-05  1081.4
 d= 0,ls=0.5,diis    20   -681.6484155348 -3.24D-06  3.04D-06  8.67D-06  1134.2
 d= 0,ls=0.5,diis    21   -681.6484171187 -1.58D-06  1.88D-06  4.78D-06  1187.3
 d= 0,ls=0.5,diis    22   -681.6484179351 -8.16D-07  1.47D-06  2.51D-06  1240.3


         Total DFT energy =     -681.648418343086
      One electron energy =    -2651.500462650668
           Coulomb energy =     1193.781231862511
    Exchange-Corr. energy =      -90.639568327545
 Nuclear repulsion energy =      866.710380772616

 Numeric. integr. density =       97.999967474454

     Total iterative time =   1285.2s



------------------------------------------------------------
EAF file 0: "/tmp/BODIPY3.aoints.0" size=524288 bytes
------------------------------------------------------------
               write      read    awrite     aread      wait
               -----      ----    ------     -----      ----
     calls:        1        22         0         0         0
   data(b): 5.24e+05  1.15e+07  0.00e+00  0.00e+00
   time(s): 0.00e+00  0.00e+00  0.00e+00  0.00e+00  0.00e+00
rate(mb/s): 0.00e+00  0.00e+00
------------------------------------------------------------


                  Occupations of the irreducible representations
                  ----------------------------------------------

                     irrep           alpha         beta
                     --------     --------     --------
                     a1               22.0         22.0
                     a2                4.0          4.0
                     b1               16.0         16.0
                     b2                7.0          7.0


 center of mass
 --------------
 x =   0.00000000 y =   0.00000000 z =  -0.10522617

 moments of inertia (a.u.)
 ------------------
        1380.328105856806           0.000000000000           0.000000000000
           0.000000000000        3803.480281060316           0.000000000000
           0.000000000000           0.000000000000        2769.361086733872

     Multipole analysis of the density
     ---------------------------------

     L   x y z        total         alpha         beta         nuclear
     -   - - -        -----         -----         ----         -------
     0   0 0 0      0.000000    -49.000000    -49.000000     98.000000

     1   1 0 0     -0.000000     -0.000000     -0.000000     -0.000000
     1   0 1 0     -0.000000     -0.000000     -0.000000      0.000000
     1   0 0 1      1.677045      0.838522      0.838522     -0.000000

     2   2 0 0    -46.161217   -734.782598   -734.782598   1423.403978
     2   1 1 0      0.000000      0.000000      0.000000      0.000000
     2   1 0 1     -0.000000     -0.000000     -0.000000     -0.000000
     2   0 2 0    -64.239082    -73.121417    -73.121417     82.003753
     2   0 1 1     -0.000000     -0.000000     -0.000000      0.000000
     2   0 0 2    -56.286623   -346.809748   -346.809748    637.332873


 Parallel integral file used    1983 records with      25 large values


            General Information
            -------------------
          SCF calculation type: DFT
          Wavefunction type:  closed shell.
          No. of atoms     :    21
          No. of electrons :    98
           Alpha electrons :    49
            Beta electrons :    49
          Charge           :     0
          Spin multiplicity:     1
          Use of symmetry is: on ; symmetry adaption is: on 
          Maximum number of iterations: 100
          AO basis - number of functions:   476
                     number of shells:   182
          Convergence on energy requested:  1.00D-06
          Convergence on density requested:  1.00D-05
          Convergence on gradient requested:  5.00D-04

              XC Information
              --------------
                         B3LYP Method XC Potential
                     Hartree-Fock (Exact) Exchange  0.200          
                        Slater Exchange Functional  0.800 local    
                    Becke 1988 Exchange Functional  0.720 non-local
              Lee-Yang-Parr Correlation Functional  0.810          
                  VWN I RPA Correlation Functional  0.190 local    

             Grid Information
             ----------------
          Grid used for XC integration:  medium    
          Radial quadrature: Mura-Knowles        
          Angular quadrature: Lebedev. 
          Tag              B.-S. Rad. Rad. Pts. Rad. Cut. Ang. Pts.
          ---              ---------- --------- --------- ---------
          B                   0.85       49          12.0       434
          N                   0.65       49          14.0       434
          C                   0.70       49          17.0       434
          F                   0.50       49          13.0       434
          H                   0.35       45          17.0       434
          Grid pruning is: on 
          Number of quadrature shells:   572
          Spatial weights used:  Erf1

          Convergence Information
          -----------------------
          Convergence aids based upon iterative change in 
          total energy or number of iterations. 
          Levelshifting, if invoked, occurs when the 
          HOMO/LUMO gap drops below (HL_TOL):  1.00D-02
          DIIS, if invoked, will attempt to extrapolate 
          using up to (NFOCK): 10 stored Fock matrices.

                    Damping( 0%)  Levelshifting(0.5)       DIIS
                  --------------- ------------------- ---------------
          dE  on:    start            ASAP                start   
          dE off:    2 iters        100 iters           100 iters 


      Screening Tolerance Information
      -------------------------------
          Density screening/tol_rho:  1.00D-10
          AO Gaussian exp screening on grid/accAOfunc:  14
          CD Gaussian exp screening on grid/accCDfunc:  20
          XC Gaussian exp screening on grid/accXCfunc:  20
          Schwarz screening/accCoul:  1.00D-08



                            NWChem DFT Gradient Module
                            --------------------------


     Excited State Calculation of BODIPY in Toluene with Dispersion Correction



  charge          =   0.00
  wavefunction    = closed shell

  Using symmetry


                         DFT ENERGY GRADIENTS

    atom               coordinates                        gradient
                 x          y          z           x          y          z
   1 B       0.000000   0.000000  -2.277039    0.000000   0.000000   0.006319
   2 N      -2.355095   0.000000  -0.534532   -0.006110   0.000000  -0.002039
   3 C      -4.757270   0.000000  -1.249312    0.004750   0.000000   0.002347
   4 C      -6.343153   0.000000   0.874269    0.004453   0.000000   0.000701
   5 C      -4.800400   0.000000   2.966937   -0.004537   0.000000  -0.001381
   6 C      -2.277777   0.000000   2.071704    0.004086   0.000000  -0.008952
   7 C       0.000000   0.000000   3.361917    0.000000   0.000000   0.004728
   8 C       2.277777   0.000000   2.071704   -0.004086   0.000000  -0.008952
   9 N       2.355095   0.000000  -0.534532    0.006110   0.000000  -0.002039
  10 C       4.757270   0.000000  -1.249312   -0.004750   0.000000   0.002347
  11 C       6.343153   0.000000   0.874269   -0.004453   0.000000   0.000701
  12 C       4.800400   0.000000   2.966937    0.004537   0.000000  -0.001381
  13 F       0.000000   2.134424  -3.763450    0.000000  -0.009142   0.004796
  14 F       0.000000  -2.134424  -3.763450    0.000000   0.009142   0.004796
  15 H      -5.257079   0.000000  -3.214929    0.000953   0.000000   0.003611
  16 H      -8.368371   0.000000   0.834337    0.003858   0.000000   0.000140
  17 H      -5.349236   0.000000   4.917585    0.001313   0.000000  -0.004008
  18 H       0.000000   0.000000   5.402088    0.000000   0.000000  -0.001478
  19 H       5.257079   0.000000  -3.214929   -0.000953   0.000000   0.003611
  20 H       8.368371   0.000000   0.834337   -0.003858   0.000000   0.000140
  21 H       5.349236   0.000000   4.917585   -0.001313   0.000000  -0.004008

                 ----------------------------------------
                 |  Time  |  1-e(secs)   |  2-e(secs)   |
                 ----------------------------------------
                 |  CPU   |       0.15   |     179.93   |
                 ----------------------------------------
                 |  WALL  |       0.15   |     180.02   |
                 ----------------------------------------
  no constraints, skipping    0.0000000000000000     

@ Step       Energy      Delta E   Gmax     Grms     Xrms     Xmax   Walltime
@ ---- ---------------- -------- -------- -------- -------- -------- --------
@    0    -681.64841834  0.0D+00  0.01024  0.00277  0.00000  0.00000   1477.0
                                                                    



                                Z-matrix (autoz)
                                -------- 

 Units are Angstrom for bonds and degrees for angles

      Type          Name      I     J     K     L     M      Value     Gradient
      ----------- --------  ----- ----- ----- ----- ----- ---------- ----------
    1 Stretch                  1     2                       1.55030   -0.00836
    2 Stretch                  1     9                       1.55030   -0.00836
    3 Stretch                  1    13                       1.37639   -0.01024
    4 Stretch                  1    14                       1.37639   -0.01024
    5 Stretch                  2     3                       1.32626   -0.00822
    6 Stretch                  2     6                       1.37977   -0.00751
    7 Stretch                  3     4                       1.40253   -0.00485
    8 Stretch                  3    15                       1.07326   -0.00373
    9 Stretch                  4     5                       1.37579   -0.00765
   10 Stretch                  4    16                       1.07191   -0.00386
   11 Stretch                  5     6                       1.41648   -0.00264
   12 Stretch                  5    17                       1.07232   -0.00421
   13 Stretch                  6     7                       1.38528   -0.00290
   14 Stretch                  7     8                       1.38528   -0.00290
   15 Stretch                  7    18                       1.07961   -0.00148
   16 Stretch                  8     9                       1.37977   -0.00751
   17 Stretch                  8    12                       1.41648   -0.00264
   18 Stretch                  9    10                       1.32626   -0.00822
   19 Stretch                 10    11                       1.40253   -0.00485
   20 Stretch                 10    19                       1.07326   -0.00373
   21 Stretch                 11    12                       1.37579   -0.00765
   22 Stretch                 11    20                       1.07191   -0.00386
   23 Stretch                 12    21                       1.07232   -0.00421
   24 Bend                     1     2     3               126.93202   -0.00053
   25 Bend                     1     2     6               124.79804   -0.00093
   26 Bend                     1     9     8               124.79804   -0.00093
   27 Bend                     1     9    10               126.93202   -0.00053
   28 Bend                     2     1     9               107.00537    0.00368
   29 Bend                     2     1    13               109.87117   -0.00085
   30 Bend                     2     1    14               109.87117   -0.00085
   31 Bend                     2     3     4               110.18157    0.00070
   32 Bend                     2     3    15               120.83726   -0.00037
   33 Bend                     2     6     5               107.83957   -0.00084
   34 Bend                     2     6     7               121.22801    0.00059
   35 Bend                     3     2     6               108.26994    0.00146
   36 Bend                     3     4     5               106.84946    0.00010
   37 Bend                     3     4    16               125.62266   -0.00001
   38 Bend                     4     3    15               128.98118   -0.00033
   39 Bend                     4     5     6               106.85946   -0.00141
   40 Bend                     4     5    17               127.88717    0.00080
   41 Bend                     5     4    16               127.52789   -0.00008
   42 Bend                     5     6     7               130.93242    0.00025
   43 Bend                     6     5    17               125.25337    0.00061
   44 Bend                     6     7     8               120.94253   -0.00301
   45 Bend                     6     7    18               119.52874    0.00151
   46 Bend                     7     8     9               121.22801    0.00059
   47 Bend                     7     8    12               130.93242    0.00025
   48 Bend                     8     7    18               119.52874    0.00151
   49 Bend                     8     9    10               108.26994    0.00146
   50 Bend                     8    12    11               106.85946   -0.00141
   51 Bend                     8    12    21               125.25337    0.00061
   52 Bend                     9     1    13               109.87117   -0.00085
   53 Bend                     9     1    14               109.87117   -0.00085
   54 Bend                     9     8    12               107.83957   -0.00084
   55 Bend                     9    10    11               110.18157    0.00070
   56 Bend                     9    10    19               120.83726   -0.00037
   57 Bend                    10    11    12               106.84946    0.00010
   58 Bend                    10    11    20               125.62266   -0.00001
   59 Bend                    11    10    19               128.98118   -0.00033
   60 Bend                    11    12    21               127.88717    0.00080
   61 Bend                    12    11    20               127.52789   -0.00008
   62 Bend                    13     1    14               110.29335   -0.00020
   63 Torsion                  1     2     3     4         180.00000    0.00000
   64 Torsion                  1     2     3    15           0.00000    0.00000
   65 Torsion                  1     2     6     5         180.00000   -0.00000
   66 Torsion                  1     2     6     7           0.00000   -0.00000
   67 Torsion                  1     9     8     7           0.00000    0.00000
   68 Torsion                  1     9     8    12         180.00000   -0.00000
   69 Torsion                  1     9    10    11         180.00000   -0.00000
   70 Torsion                  1     9    10    19           0.00000    0.00000
   71 Torsion                  2     1     9     8           0.00000    0.00000
   72 Torsion                  2     1     9    10         180.00000   -0.00000
   73 Torsion                  2     3     4     5           0.00000   -0.00000
   74 Torsion                  2     3     4    16         180.00000   -0.00000
   75 Torsion                  2     6     5     4          -0.00000   -0.00000
   76 Torsion                  2     6     5    17         180.00000   -0.00000
   77 Torsion                  2     6     7     8           0.00000   -0.00000
   78 Torsion                  2     6     7    18         180.00000    0.00000
   79 Torsion                  3     2     1     9         180.00000    0.00000
   80 Torsion                  3     2     1    13          60.75882   -0.00067
   81 Torsion                  3     2     1    14         -60.75882    0.00067
   82 Torsion                  3     2     6     5           0.00000   -0.00000
   83 Torsion                  3     2     6     7         180.00000    0.00000
   84 Torsion                  3     4     5     6           0.00000   -0.00000
   85 Torsion                  3     4     5    17         180.00000   -0.00000
   86 Torsion                  4     3     2     6           0.00000   -0.00000
   87 Torsion                  4     5     6     7         180.00000   -0.00000
   88 Torsion                  5     4     3    15         180.00000    0.00000
   89 Torsion                  5     6     7     8         180.00000   -0.00000
   90 Torsion                  5     6     7    18           0.00000    0.00000
   91 Torsion                  6     2     1     9          -0.00000   -0.00000
   92 Torsion                  6     2     1    13        -119.24118   -0.00067
   93 Torsion                  6     2     1    14         119.24118    0.00067
   94 Torsion                  6     2     3    15         180.00000    0.00000
   95 Torsion                  6     5     4    16         180.00000    0.00000
   96 Torsion                  6     7     8     9           0.00000    0.00000
   97 Torsion                  6     7     8    12         180.00000   -0.00000
   98 Torsion                  7     6     5    17           0.00000    0.00000
   99 Torsion                  7     8     9    10         180.00000   -0.00000
  100 Torsion                  7     8    12    11         180.00000   -0.00000
  101 Torsion                  7     8    12    21           0.00000    0.00000
  102 Torsion                  8     9     1    13         119.24118    0.00067
  103 Torsion                  8     9     1    14        -119.24118   -0.00067
  104 Torsion                  8     9    10    11           0.00000    0.00000
  105 Torsion                  8     9    10    19         180.00000    0.00000
  106 Torsion                  8    12    11    10           0.00000    0.00000
  107 Torsion                  8    12    11    20         180.00000    0.00000
  108 Torsion                  9     8     7    18         180.00000   -0.00000
  109 Torsion                  9     8    12    11           0.00000   -0.00000
  110 Torsion                  9     8    12    21         180.00000   -0.00000
  111 Torsion                  9    10    11    12           0.00000   -0.00000
  112 Torsion                  9    10    11    20         180.00000    0.00000
  113 Torsion                 10     9     1    13         -60.75882    0.00067
  114 Torsion                 10     9     1    14          60.75882   -0.00067
  115 Torsion                 10     9     8    12           0.00000   -0.00000
  116 Torsion                 10    11    12    21         180.00000   -0.00000
  117 Torsion                 12     8     7    18           0.00000    0.00000
  118 Torsion                 12    11    10    19         180.00000    0.00000
  119 Torsion                 15     3     4    16          -0.00000    0.00000
  120 Torsion                 16     4     5    17           0.00000   -0.00000
  121 Torsion                 19    10    11    20           0.00000   -0.00000
  122 Torsion                 20    11    12    21           0.00000    0.00000

  no constraints, skipping    0.0000000000000000     
  no constraints, skipping    0.0000000000000000     
  no constraints, skipping    0.0000000000000000     
  no constraints, skipping    0.0000000000000000     
  no constraints, skipping    0.0000000000000000     
  no constraints, skipping    0.0000000000000000     
  no constraints, skipping    0.0000000000000000     
  no constraints, skipping    0.0000000000000000     

                                 NWChem DFT Module
                                 -----------------


     Excited State Calculation of BODIPY in Toluene with Dispersion Correction




 Summary of "ao basis" -> "ao basis" (spherical)
 ------------------------------------------------------------------------------
       Tag                 Description            Shells   Functions and Types
 ---------------- ------------------------------  ------  ---------------------
 B                         def2-tzvp                11       31   5s3p2d1f
 N                         def2-tzvp                11       31   5s3p2d1f
 C                         def2-tzvp                11       31   5s3p2d1f
 F                         def2-tzvp                11       31   5s3p2d1f
 H                         def2-tzvp                 4        6   3s1p


      Symmetry analysis of basis
      --------------------------

        a1        173
        a2         69
        b1        145
        b2         89

  Caching 1-el integrals 

            General Information
            -------------------
          SCF calculation type: DFT
          Wavefunction type:  closed shell.
          No. of atoms     :    21
          No. of electrons :    98
           Alpha electrons :    49
            Beta electrons :    49
          Charge           :     0
          Spin multiplicity:     1
          Use of symmetry is: on ; symmetry adaption is: on 
          Maximum number of iterations: 100
          AO basis - number of functions:   476
                     number of shells:   182
          Convergence on energy requested:  1.00D-06
          Convergence on density requested:  1.00D-05
          Convergence on gradient requested:  5.00D-04

              XC Information
              --------------
                         B3LYP Method XC Potential
                     Hartree-Fock (Exact) Exchange  0.200          
                        Slater Exchange Functional  0.800 local    
                    Becke 1988 Exchange Functional  0.720 non-local
              Lee-Yang-Parr Correlation Functional  0.810          
                  VWN I RPA Correlation Functional  0.190 local    

             Grid Information
             ----------------
          Grid used for XC integration:  medium    
          Radial quadrature: Mura-Knowles        
          Angular quadrature: Lebedev. 
          Tag              B.-S. Rad. Rad. Pts. Rad. Cut. Ang. Pts.
          ---              ---------- --------- --------- ---------
          B                   0.85       49          12.0       434
          N                   0.65       49          14.0       434
          C                   0.70       49          17.0       434
          F                   0.50       49          13.0       434
          H                   0.35       45          17.0       434
          Grid pruning is: on 
          Number of quadrature shells:   572
          Spatial weights used:  Erf1

          Convergence Information
          -----------------------
          Convergence aids based upon iterative change in 
          total energy or number of iterations. 
          Levelshifting, if invoked, occurs when the 
          HOMO/LUMO gap drops below (HL_TOL):  1.00D-02
          DIIS, if invoked, will attempt to extrapolate 
          using up to (NFOCK): 10 stored Fock matrices.

                    Damping( 0%)  Levelshifting(0.5)       DIIS
                  --------------- ------------------- ---------------
          dE  on:    start            ASAP                start   
          dE off:    2 iters        100 iters           100 iters 


      Screening Tolerance Information
      -------------------------------
          Density screening/tol_rho:  1.00D-10
          AO Gaussian exp screening on grid/accAOfunc:  14
          CD Gaussian exp screening on grid/accCDfunc:  20
          XC Gaussian exp screening on grid/accXCfunc:  20
          Schwarz screening/accCoul:  1.00D-08


 Loading old vectors from job with title :

Excited State Calculation of BODIPY in Toluene with Dispersion Correction


      Symmetry analysis of molecular orbitals - initial
      -------------------------------------------------

  Numbering of irreducible representations: 

     1 a1          2 a2          3 b1          4 b2      

  Orbital symmetries:

     1 a1          2 b2          3 b1          4 a1          5 a1      
     6 b1          7 a1          8 b1          9 a1         10 b1      
    11 a1         12 a1         13 b1         14 a1         15 a1      
    16 b2         17 a1         18 b1         19 a1         20 a1      
    21 b1         22 b1         23 a1         24 a1         25 a1      
    26 b1         27 b1         28 b1         29 a1         30 a1      
    31 b2         32 a1         33 b1         34 b1         35 a1      
    36 b2         37 a2         38 a1         39 a1         40 b1      
    41 b1         42 a2         43 a1         44 b2         45 b1      
    46 b2         47 b2         48 a2         49 a2         50 b2      
    51 a2         52 b2         53 a1         54 a2         55 b1      
    56 a1         57 a1         58 b2         59 b1      

   Time after variat. SCF:   1477.8
   Time prior to 1st pass:   1477.8

 Integral file          = /tmp/BODIPY3.aoints.0
 Record size in doubles =  65536        No. of integs per rec  =  43688
 Max. records in memory =   1982        Max. records in file   =      0
 No. of bits per label  =     16        No. of bits per value  =     32


 #quartets = 2.553D+07 #integrals = 6.642D+08 #direct = 87.0% #cached = 13.0%


 Grid_pts file          = /tmp/BODIPY3.gridpts.0
 Record size in doubles =  12289        No. of grid_pts per rec  =   3070
 Max. records in memory =     90        Max. recs in file   =    580420


           Memory utilization after 1st SCF pass: 
           Heap Space remaining (MW):      405.86           405860026
          Stack Space remaining (MW):      536.87           536867868

   convergence    iter        energy       DeltaE   RMS-Dens  Diis-err    time
 ---------------- ----- ----------------- --------- --------- ---------  ------
 d= 0,ls=0.0,diis     1   -681.6492481058 -1.54D+03  1.71D-04  5.19D-03  1541.4
 d= 0,ls=0.0,diis     2   -681.6496171015 -3.69D-04  4.90D-05  5.54D-04  1590.2
 d= 0,ls=0.0,diis     3   -681.6495885334  2.86D-05  3.17D-05  8.03D-04  1639.0
 d= 0,ls=0.0,diis     4   -681.6496710321 -8.25D-05  8.15D-06  4.56D-05  1687.6
 d= 0,ls=0.0,diis     5   -681.6496763020 -5.27D-06  2.06D-06  2.09D-06  1736.3
 d= 0,ls=0.0,diis     6   -681.6496765117 -2.10D-07  8.87D-07  3.19D-07  1784.9


         Total DFT energy =     -681.649676511654
      One electron energy =    -2641.029529494586
           Coulomb energy =     1188.498901825227
    Exchange-Corr. energy =      -90.557325202310
 Nuclear repulsion energy =      861.438276360015

 Numeric. integr. density =       97.999962581798

     Total iterative time =    307.1s



                  Occupations of the irreducible representations
                  ----------------------------------------------

                     irrep           alpha         beta
                     --------     --------     --------
                     a1               22.0         22.0
                     a2                4.0          4.0
                     b1               16.0         16.0
                     b2                7.0          7.0


 center of mass
 --------------
 x =   0.00000000 y =   0.00000000 z =  -0.11407961

 moments of inertia (a.u.)
 ------------------
        1405.628661374541           0.000000000000          -0.000000000000
           0.000000000000        3847.178805879502           0.000000000000
          -0.000000000000           0.000000000000        2795.961165263712

     Multipole analysis of the density
     ---------------------------------

     L   x y z        total         alpha         beta         nuclear
     -   - - -        -----         -----         ----         -------
     0   0 0 0     -0.000000    -49.000000    -49.000000     98.000000

     1   1 0 0      0.000000      0.000000      0.000000      0.000000
     1   0 1 0      0.000000      0.000000      0.000000      0.000000
     1   0 0 1      1.710575      1.221249      1.221249     -0.731924

     2   2 0 0    -45.913446   -740.877028   -740.877028   1435.840609
     2   1 1 0     -0.000000     -0.000000     -0.000000      0.000000
     2   1 0 1     -0.000000     -0.000000     -0.000000      0.000000
     2   0 2 0    -64.482444    -74.214483    -74.214483     83.946521
     2   0 1 1     -0.000000     -0.000000     -0.000000      0.000000
     2   0 0 2    -56.437322   -352.225171   -352.225171    648.013019


 Parallel integral file used    1979 records with      25 large values

 Line search: 
     step= 1.00 grad=-2.6D-03 hess= 1.3D-03 energy=   -681.649677 mode=accept  
 new step= 1.00                   predicted energy=   -681.649677
  no constraints, skipping    0.0000000000000000     
  no constraints, skipping    0.0000000000000000     
  no constraints, skipping    0.0000000000000000     
  no constraints, skipping    0.0000000000000000     
  no constraints, skipping    0.0000000000000000     
  no constraints, skipping    0.0000000000000000     
  no constraints, skipping    0.0000000000000000     
  no constraints, skipping    0.0000000000000000     

          --------
          Step   1
          --------


                         Geometry "geometry" -> "geometry"
                         ---------------------------------

 Output coordinates in angstroms (scale by  1.889725989 to convert to a.u.)

  No.       Tag          Charge          X              Y              Z
 ---- ---------------- ---------- -------------- -------------- --------------
    1 B                    5.0000     0.00000000     0.00000000    -1.22864936
    2 N                    7.0000    -1.24916159     0.00000000    -0.28798959
    3 C                    6.0000    -2.53305624     0.00000000    -0.66119713
    4 C                    6.0000    -3.37227236     0.00000000     0.47043498
    5 C                    6.0000    -2.54581789     0.00000000     1.57917963
    6 C                    6.0000    -1.21101494     0.00000000     1.10070668
    7 C                    6.0000     0.00000000     0.00000000     1.77662555
    8 C                    6.0000     1.21101494     0.00000000     1.10070668
    9 N                    7.0000     1.24916159     0.00000000    -0.28798959
   10 C                    6.0000     2.53305624     0.00000000    -0.66119713
   11 C                    6.0000     3.37227236     0.00000000     0.47043498
   12 C                    6.0000     2.54581789     0.00000000     1.57917963
   13 F                    9.0000     0.00000000     1.14278956    -2.01849736
   14 F                    9.0000     0.00000000    -1.14278956    -2.01849736
   15 H                    1.0000    -2.80411891     0.00000000    -1.70537003
   16 H                    1.0000    -4.44974066     0.00000000     0.45350775
   17 H                    1.0000    -2.83443785     0.00000000     2.61838307
   18 H                    1.0000     0.00000000     0.00000000     2.85845118
   19 H                    1.0000     2.80411891     0.00000000    -1.70537003
   20 H                    1.0000     4.44974066     0.00000000     0.45350775
   21 H                    1.0000     2.83443785     0.00000000     2.61838307

      Atomic Mass 
      ----------- 

      B                 11.009310
      N                 14.003070
      C                 12.000000
      F                 18.998400
      H                  1.007825


 Effective nuclear repulsion energy (a.u.)     861.4382763600

            Nuclear Dipole moment (a.u.) 
            ----------------------------
        X                 Y               Z
 ---------------- ---------------- ----------------
     0.0000000000     0.0000000000    -0.7319240222

      Symmetry information
      --------------------

 Group name             C2v       
 Group number             16
 Group order               4
 No. of unique centers    12

      Symmetry unique atoms

     1    2    3    4    5    6    7   13   15   16   17   18


                                 NWChem DFT Module
                                 -----------------


     Excited State Calculation of BODIPY in Toluene with Dispersion Correction




 Summary of "ao basis" -> "ao basis" (spherical)
 ------------------------------------------------------------------------------
       Tag                 Description            Shells   Functions and Types
 ---------------- ------------------------------  ------  ---------------------
 B                         def2-tzvp                11       31   5s3p2d1f
 N                         def2-tzvp                11       31   5s3p2d1f
 C                         def2-tzvp                11       31   5s3p2d1f
 F                         def2-tzvp                11       31   5s3p2d1f
 H                         def2-tzvp                 4        6   3s1p


      Symmetry analysis of basis
      --------------------------

        a1        173
        a2         69
        b1        145
        b2         89


  The DFT is already converged 

         Total DFT energy =   -681.649676511654


            General Information
            -------------------
          SCF calculation type: DFT
          Wavefunction type:  closed shell.
          No. of atoms     :    21
          No. of electrons :    98
           Alpha electrons :    49
            Beta electrons :    49
          Charge           :     0
          Spin multiplicity:     1
          Use of symmetry is: on ; symmetry adaption is: on 
          Maximum number of iterations: 100
          AO basis - number of functions:   476
                     number of shells:   182
          Convergence on energy requested:  1.00D-06
          Convergence on density requested:  1.00D-05
          Convergence on gradient requested:  5.00D-04

              XC Information
              --------------
                         B3LYP Method XC Potential
                     Hartree-Fock (Exact) Exchange  0.200          
                        Slater Exchange Functional  0.800 local    
                    Becke 1988 Exchange Functional  0.720 non-local
              Lee-Yang-Parr Correlation Functional  0.810          
                  VWN I RPA Correlation Functional  0.190 local    

             Grid Information
             ----------------
          Grid used for XC integration:  medium    
          Radial quadrature: Mura-Knowles        
          Angular quadrature: Lebedev. 
          Tag              B.-S. Rad. Rad. Pts. Rad. Cut. Ang. Pts.
          ---              ---------- --------- --------- ---------
          B                   0.85       49          12.0       434
          N                   0.65       49          14.0       434
          C                   0.70       49          17.0       434
          F                   0.50       49          13.0       434
          H                   0.35       45          17.0       434
[...]
    6 C                    6.0000    -1.21219523     0.00000000     1.10137464
    7 C                    6.0000     0.00000000     0.00000000     1.77400062
    8 C                    6.0000     1.21219523     0.00000000     1.10137464
    9 N                    7.0000     1.25208824     0.00000000    -0.28783767
   10 C                    6.0000     2.53470111     0.00000000    -0.65948523
   11 C                    6.0000     3.37247481     0.00000000     0.47192034
   12 C                    6.0000     2.54419721     0.00000000     1.57958134
   13 F                    9.0000     0.00000000     1.14251082    -2.02065396
   14 F                    9.0000     0.00000000    -1.14251082    -2.02065396
   15 H                    1.0000    -2.80639249     0.00000000    -1.70326931
   16 H                    1.0000    -4.44947948     0.00000000     0.45624144
   17 H                    1.0000    -2.83317433     0.00000000     2.61837210
   18 H                    1.0000     0.00000000     0.00000000     2.85632161
   19 H                    1.0000     2.80639249     0.00000000    -1.70326931
   20 H                    1.0000     4.44947948     0.00000000     0.45624144
   21 H                    1.0000     2.83317433     0.00000000     2.61837210

      Atomic Mass 
      ----------- 

      B                 11.009310
      N                 14.003070
      C                 12.000000
      F                 18.998400
      H                  1.007825


 Effective nuclear repulsion energy (a.u.)     861.3115951960

            Nuclear Dipole moment (a.u.) 
            ----------------------------
        X                 Y               Z
 ---------------- ---------------- ----------------
     0.0000000000     0.0000000000    -0.8090349573

      Symmetry information
      --------------------

 Group name             C2v       
 Group number             16
 Group order               4
 No. of unique centers    12

      Symmetry unique atoms

     1    2    3    4    5    6    7   13   15   16   17   18


                Final and change from initial internal coordinates
                --------------------------------------------------



                                Z-matrix (autoz)
                                -------- 

 Units are Angstrom for bonds and degrees for angles

      Type          Name      I     J     K     L     M      Value       Change
      ----------- --------  ----- ----- ----- ----- ----- ---------- ----------
    1 Stretch                  1     2                       1.57183    0.02153
    2 Stretch                  1     9                       1.57183    0.02153
    3 Stretch                  1    13                       1.38484    0.00845
    4 Stretch                  1    14                       1.38484    0.00845
    5 Stretch                  2     3                       1.33537    0.00911
    6 Stretch                  2     6                       1.38978    0.01002
    7 Stretch                  3     4                       1.40782    0.00528
    8 Stretch                  3    15                       1.07856    0.00531
    9 Stretch                  4     5                       1.38310    0.00730
   10 Stretch                  4    16                       1.07712    0.00521
   11 Stretch                  5     6                       1.41524   -0.00124
   12 Stretch                  5    17                       1.07824    0.00592
   13 Stretch                  6     7                       1.38631    0.00102
   14 Stretch                  7     8                       1.38631    0.00102
   15 Stretch                  7    18                       1.08232    0.00271
   16 Stretch                  8     9                       1.38978    0.01002
   17 Stretch                  8    12                       1.41524   -0.00124
   18 Stretch                  9    10                       1.33537    0.00911
   19 Stretch                 10    11                       1.40782    0.00528
   20 Stretch                 10    19                       1.07856    0.00531
   21 Stretch                 11    12                       1.38310    0.00730
   22 Stretch                 11    20                       1.07712    0.00521
   23 Stretch                 12    21                       1.07824    0.00592
   24 Bend                     1     2     3               126.64521   -0.28680
   25 Bend                     1     2     6               125.55054    0.75249
   26 Bend                     1     9     8               125.55054    0.75249
   27 Bend                     1     9    10               126.64521   -0.28680
   28 Bend                     2     1     9               105.60918   -1.39618
   29 Bend                     2     1    13               109.97621    0.10504
   30 Bend                     2     1    14               109.97621    0.10504
   31 Bend                     2     3     4               110.35952    0.17795
   32 Bend                     2     3    15               120.74940   -0.08785
   33 Bend                     2     6     5               108.10395    0.26438
   34 Bend                     2     6     7               120.67000   -0.55801
   35 Bend                     3     2     6               107.80425   -0.46569
   36 Bend                     3     4     5               106.69300   -0.15645
   37 Bend                     3     4    16               125.68485    0.06219
   38 Bend                     4     3    15               128.89108   -0.09010
   39 Bend                     4     5     6               107.03928    0.17981
   40 Bend                     4     5    17               127.66607   -0.22110
   41 Bend                     5     4    16               127.62215    0.09426
   42 Bend                     5     6     7               131.22605    0.29363
   43 Bend                     6     5    17               125.29465    0.04128
   44 Bend                     6     7     8               121.94974    1.00721
   45 Bend                     6     7    18               119.02513   -0.50361
   46 Bend                     7     8     9               120.67000   -0.55801
   47 Bend                     7     8    12               131.22605    0.29363
   48 Bend                     8     7    18               119.02513   -0.50361
   49 Bend                     8     9    10               107.80425   -0.46569
   50 Bend                     8    12    11               107.03928    0.17981
   51 Bend                     8    12    21               125.29465    0.04128
   52 Bend                     9     1    13               109.97621    0.10504
   53 Bend                     9     1    14               109.97621    0.10504
   54 Bend                     9     8    12               108.10395    0.26438
   55 Bend                     9    10    11               110.35952    0.17795
   56 Bend                     9    10    19               120.74940   -0.08785
   57 Bend                    10    11    12               106.69300   -0.15645
   58 Bend                    10    11    20               125.68485    0.06219
   59 Bend                    11    10    19               128.89108   -0.09010
   60 Bend                    11    12    21               127.66607   -0.22110
   61 Bend                    12    11    20               127.62215    0.09426
   62 Bend                    13     1    14               111.17991    0.88656
   63 Torsion                  1     2     3     4         180.00000    0.00000
   64 Torsion                  1     2     3    15           0.00000    0.00000
   65 Torsion                  1     2     6     5         180.00000    0.00000
   66 Torsion                  1     2     6     7           0.00000    0.00000
   67 Torsion                  1     9     8     7           0.00000    0.00000
   68 Torsion                  1     9     8    12         180.00000    0.00000
   69 Torsion                  1     9    10    11         180.00000    0.00000
   70 Torsion                  1     9    10    19           0.00000    0.00000
   71 Torsion                  2     1     9     8           0.00000    0.00000
   72 Torsion                  2     1     9    10         180.00000    0.00000
   73 Torsion                  2     3     4     5           0.00000    0.00000
   74 Torsion                  2     3     4    16         180.00000    0.00000
   75 Torsion                  2     6     5     4          -0.00000    0.00000
   76 Torsion                  2     6     5    17         180.00000    0.00000
   77 Torsion                  2     6     7     8           0.00000    0.00000
   78 Torsion                  2     6     7    18         180.00000    0.00000
   79 Torsion                  3     2     1     9         180.00000    0.00000
   80 Torsion                  3     2     1    13          61.38163    0.62281
   81 Torsion                  3     2     1    14         -61.38163   -0.62281
   82 Torsion                  3     2     6     5           0.00000    0.00000
   83 Torsion                  3     2     6     7         180.00000    0.00000
   84 Torsion                  3     4     5     6           0.00000    0.00000
   85 Torsion                  3     4     5    17         180.00000    0.00000
   86 Torsion                  4     3     2     6           0.00000    0.00000
   87 Torsion                  4     5     6     7         180.00000    0.00000
   88 Torsion                  5     4     3    15         180.00000    0.00000
   89 Torsion                  5     6     7     8         180.00000    0.00000
   90 Torsion                  5     6     7    18           0.00000    0.00000
   91 Torsion                  6     2     1     9          -0.00000    0.00000
   92 Torsion                  6     2     1    13        -118.61837    0.62281
   93 Torsion                  6     2     1    14         118.61837   -0.62281
   94 Torsion                  6     2     3    15         180.00000    0.00000
   95 Torsion                  6     5     4    16         180.00000    0.00000
   96 Torsion                  6     7     8     9           0.00000    0.00000
   97 Torsion                  6     7     8    12         180.00000    0.00000
   98 Torsion                  7     6     5    17           0.00000    0.00000
   99 Torsion                  7     8     9    10         180.00000    0.00000
  100 Torsion                  7     8    12    11         180.00000    0.00000
  101 Torsion                  7     8    12    21           0.00000    0.00000
  102 Torsion                  8     9     1    13         118.61837   -0.62281
  103 Torsion                  8     9     1    14        -118.61837    0.62281
  104 Torsion                  8     9    10    11           0.00000    0.00000
  105 Torsion                  8     9    10    19         180.00000    0.00000
  106 Torsion                  8    12    11    10           0.00000    0.00000
  107 Torsion                  8    12    11    20         180.00000    0.00000
  108 Torsion                  9     8     7    18         180.00000    0.00000
  109 Torsion                  9     8    12    11           0.00000    0.00000
  110 Torsion                  9     8    12    21         180.00000    0.00000
  111 Torsion                  9    10    11    12           0.00000    0.00000
  112 Torsion                  9    10    11    20         180.00000    0.00000
  113 Torsion                 10     9     1    13         -61.38163   -0.62281
  114 Torsion                 10     9     1    14          61.38163    0.62281
  115 Torsion                 10     9     8    12           0.00000    0.00000
  116 Torsion                 10    11    12    21         180.00000    0.00000
  117 Torsion                 12     8     7    18           0.00000    0.00000
  118 Torsion                 12    11    10    19         180.00000    0.00000
  119 Torsion                 15     3     4    16          -0.00000    0.00000
  120 Torsion                 16     4     5    17           0.00000    0.00000
  121 Torsion                 19    10    11    20           0.00000    0.00000
  122 Torsion                 20    11    12    21           0.00000    0.00000

 ==============================================================================
                                internuclear distances
 ------------------------------------------------------------------------------
       center one      |      center two      | atomic units |  angstroms
 ------------------------------------------------------------------------------
    2 N                |   1 B                |     2.97033  |     1.57183
    3 C                |   2 N                |     2.52349  |     1.33537
    4 C                |   3 C                |     2.66038  |     1.40782
    5 C                |   4 C                |     2.61367  |     1.38310
    6 C                |   2 N                |     2.62631  |     1.38978
    6 C                |   5 C                |     2.67442  |     1.41524
    7 C                |   6 C                |     2.61974  |     1.38631
    8 C                |   7 C                |     2.61974  |     1.38631
    9 N                |   1 B                |     2.97033  |     1.57183
    9 N                |   8 C                |     2.62631  |     1.38978
   10 C                |   9 N                |     2.52349  |     1.33537
   11 C                |  10 C                |     2.66038  |     1.40782
   12 C                |   8 C                |     2.67442  |     1.41524
   12 C                |  11 C                |     2.61367  |     1.38310
   13 F                |   1 B                |     2.61696  |     1.38484
   14 F                |   1 B                |     2.61696  |     1.38484
   15 H                |   3 C                |     2.03819  |     1.07856
   16 H                |   4 C                |     2.03546  |     1.07712
   17 H                |   5 C                |     2.03757  |     1.07824
   18 H                |   7 C                |     2.04529  |     1.08232
   19 H                |  10 C                |     2.03819  |     1.07856
   20 H                |  11 C                |     2.03546  |     1.07712
   21 H                |  12 C                |     2.03757  |     1.07824
 ------------------------------------------------------------------------------
                         number of included internuclear distances:         23
 ==============================================================================



 ==============================================================================
                                 internuclear angles
 ------------------------------------------------------------------------------
        center 1       |       center 2       |       center 3       |  degrees
 ------------------------------------------------------------------------------
    2 N                |   1 B                |   9 N                |   105.61
    2 N                |   1 B                |  13 F                |   109.98
    2 N                |   1 B                |  14 F                |   109.98
    9 N                |   1 B                |  13 F                |   109.98
    9 N                |   1 B                |  14 F                |   109.98
   13 F                |   1 B                |  14 F                |   111.18
    1 B                |   2 N                |   3 C                |   126.65
    1 B                |   2 N                |   6 C                |   125.55
    3 C                |   2 N                |   6 C                |   107.80
    2 N                |   3 C                |   4 C                |   110.36
    2 N                |   3 C                |  15 H                |   120.75
    4 C                |   3 C                |  15 H                |   128.89
    3 C                |   4 C                |   5 C                |   106.69
    3 C                |   4 C                |  16 H                |   125.68
    5 C                |   4 C                |  16 H                |   127.62
    4 C                |   5 C                |   6 C                |   107.04
    4 C                |   5 C                |  17 H                |   127.67
    6 C                |   5 C                |  17 H                |   125.29
    2 N                |   6 C                |   5 C                |   108.10
    2 N                |   6 C                |   7 C                |   120.67
    5 C                |   6 C                |   7 C                |   131.23
    6 C                |   7 C                |   8 C                |   121.95
    6 C                |   7 C                |  18 H                |   119.03
    8 C                |   7 C                |  18 H                |   119.03
    7 C                |   8 C                |   9 N                |   120.67
    7 C                |   8 C                |  12 C                |   131.23
    9 N                |   8 C                |  12 C                |   108.10
    1 B                |   9 N                |   8 C                |   125.55
    1 B                |   9 N                |  10 C                |   126.65
    8 C                |   9 N                |  10 C                |   107.80
    9 N                |  10 C                |  11 C                |   110.36
    9 N                |  10 C                |  19 H                |   120.75
   11 C                |  10 C                |  19 H                |   128.89
   10 C                |  11 C                |  12 C                |   106.69
   10 C                |  11 C                |  20 H                |   125.68
   12 C                |  11 C                |  20 H                |   127.62
    8 C                |  12 C                |  11 C                |   107.04
    8 C                |  12 C                |  21 H                |   125.29
   11 C                |  12 C                |  21 H                |   127.67
 ------------------------------------------------------------------------------
                            number of included internuclear angles:         39
 ==============================================================================




 Task  times  cpu:     4030.1s     wall:     3862.7s


                                NWChem Input Module
                                -------------------


 MOLDEN output will be written to the file ./BODIPY3.molden
  do_norm_janpa  F
  do_norm_nwchem  F
  molden scftype: RHF                  spinref:                     1
  
  Molden file created 
  If you plan to use JANPA 
    run the .molden file through 
    molden2molden.jar -NormalizeBF to get the
    correct Molden normalization 
   

 Task  times  cpu:        0.6s     wall:        0.5s


                                NWChem Input Module
                                -------------------


 ------------------------------------------------------------------------
 tddft_input: unknown directive                   0
 ------------------------------------------------------------------------
 ------------------------------------------------------------------------
  current input line : 
    88:   singlets 5
 ------------------------------------------------------------------------
 ------------------------------------------------------------------------
 There is an error in the input file
 ------------------------------------------------------------------------
 For more information see the NWChem manual at https://github.com/nwchemgit/nwchem/wiki


 For further details see manual section:                                                                                                                                                                                                                                                                
