 argument  1 = BODIPY2.in



============================== echo of input deck ==============================
echo

start molecule

title "C9H7BN2F2 | Equilibrium Geometry | B3LYP/6-31G(d)"
charge 0

geometry units angstroms print xyz autosym
B      0.000001   -1.162957    0.000644
N      1.246339   -0.240964    0.000674
C      2.517484   -0.619309    0.001360
C      3.356788    0.504376    0.001062
C      2.540488    1.611831   -0.000033
C      1.205532    1.138202   -0.000109
C      0.000244    1.821050   -0.000443
C     -1.205163    1.138396    0.000211
N     -1.246186   -0.240759    0.001038
C     -2.517394   -0.618905    0.001979
C     -3.356516    0.504912    0.001818
C     -2.540037    1.612241    0.000543
F      0.000115   -1.949817    1.129932
F     -0.000242   -1.949247   -1.129045
H      2.781890   -1.659490    0.002099
H      4.428486    0.483157    0.001574
H      2.831001    2.644047   -0.000553
H      0.000331    2.900662   -0.001206
H     -2.781963   -1.659043    0.002802
H     -4.428217    0.483869    0.002536
H     -2.830387    2.644502    0.000062
end

basis
  * library 6-31G*
end

dft
  xc b3lyp
  mult 1
end

task dft optimize
================================================================================


                                         
                                         


             Northwest Computational Chemistry Package (NWChem) 7.0.2
             --------------------------------------------------------


                    Environmental Molecular Sciences Laboratory
                       Pacific Northwest National Laboratory
                                Richland, WA 99352

                              Copyright (c) 1994-2020
                       Pacific Northwest National Laboratory
                            Battelle Memorial Institute

             NWChem is an open-source computational chemistry package
                        distributed under the terms of the
                      Educational Community License (ECL) 2.0
             A copy of the license is included with this distribution
                              in the LICENSE.TXT file

                                  ACKNOWLEDGMENT
                                  --------------

            This software and its documentation were developed at the
            EMSL at Pacific Northwest National Laboratory, a multiprogram
            national laboratory, operated for the U.S. Department of Energy
            by Battelle under Contract Number DE-AC05-76RL01830. Support
            for this work was provided by the Department of Energy Office
            of Biological and Environmental Research, Office of Basic
            Energy Sciences, and the Office of Advanced Scientific Computing.


           Job information
           ---------------

    hostname        = taamangtchu-Aspire-A515-45
    program         = nwchem
    date            = Thu Jun 27 09:37:45 2024

    compiled        = Sat_Apr_09_17:12:10_2022
    source          = /build/nwchem-f1f4gx/nwchem-7.0.2/build-openmpi
    nwchem branch   = 7.0.2
    nwchem revision = N/A
    ga revision     = 5.8.1
    use scalapack   = T
    input           = BODIPY2.in
    prefix          = molecule.
    data base       = ./molecule.db
    status          = startup
    nproc           =        1
    time left       =     -1s



           Memory information
           ------------------

    heap     =   13107200 doubles =    100.0 Mbytes
    stack    =   13107197 doubles =    100.0 Mbytes
    global   =   26214400 doubles =    200.0 Mbytes (distinct from heap & stack)
    total    =   52428797 doubles =    400.0 Mbytes
    verify   = yes
    hardfail = no 


           Directory information
           ---------------------

  0 permanent = .
  0 scratch   = .




                                NWChem Input Module
                                -------------------


                 C9H7BN2F2 | Equilibrium Geometry | B3LYP/6-31G(d)
                 -------------------------------------------------

 Scaling coordinates for geometry "geometry" by  1.889725989
 (inverse scale =  0.529177249)

 C2V symmetry detected

          ------
          auto-z
          ------
  no constraints, skipping    0.0000000000000000     
  no constraints, skipping    0.0000000000000000     


                             Geometry "geometry" -> ""
                             -------------------------

 Output coordinates in angstroms (scale by  1.889725989 to convert to a.u.)

  No.       Tag          Charge          X              Y              Z
 ---- ---------------- ---------- -------------- -------------- --------------
    1 B                    5.0000     0.00000000     0.00000000    -1.20495742
    2 N                    7.0000    -1.24626252     0.00000000    -0.28286200
    3 C                    6.0000    -2.51743903     0.00000000    -0.66110770
    4 C                    6.0000    -3.35665203     0.00000000     0.46264333
    5 C                    6.0000    -2.54026252     0.00000000     1.57003560
    6 C                    6.0000    -1.20534751     0.00000000     1.09629866
    7 C                    6.0000     0.00000000     0.00000000     1.77904977
    8 C                    6.0000     1.20534751     0.00000000     1.09629866
    9 N                    7.0000     1.24626252     0.00000000    -0.28286200
   10 C                    6.0000     2.51743903     0.00000000    -0.66110770
   11 C                    6.0000     3.35665203     0.00000000     0.46264333
   12 C                    6.0000     2.54026252     0.00000000     1.57003560
   13 F                    9.0000     0.00000000     1.12948840    -1.99153234
   14 F                    9.0000     0.00000000    -1.12948840    -1.99153234
   15 H                    1.0000    -2.78192653     0.00000000    -1.70126737
   16 H                    1.0000    -4.42835154     0.00000000     0.44151217
   17 H                    1.0000    -2.83069403     0.00000000     2.60227420
   18 H                    1.0000     0.00000000     0.00000000     2.85866193
   19 H                    1.0000     2.78192653     0.00000000    -1.70126737
   20 H                    1.0000     4.42835154     0.00000000     0.44151217
   21 H                    1.0000     2.83069403     0.00000000     2.60227420

      Atomic Mass 
      ----------- 

      B                 11.009310
      N                 14.003070
      C                 12.000000
      F                 18.998400
      H                  1.007825


 Effective nuclear repulsion energy (a.u.)     866.7103807726

            Nuclear Dipole moment (a.u.) 
            ----------------------------
        X                 Y               Z
 ---------------- ---------------- ----------------
    -0.0000000000     0.0000000000    -0.0000000000

      Symmetry information
      --------------------

 Group name             C2v       
 Group number             16
 Group order               4
 No. of unique centers    12

      Symmetry unique atoms

     1    2    3    4    5    6    7   13   15   16   17   18



                                Z-matrix (autoz)
                                -------- 

 Units are Angstrom for bonds and degrees for angles

      Type          Name      I     J     K     L     M      Value
      ----------- --------  ----- ----- ----- ----- ----- ----------
    1 Stretch                  1     2                       1.55030
    2 Stretch                  1     9                       1.55030
    3 Stretch                  1    13                       1.37639
    4 Stretch                  1    14                       1.37639
    5 Stretch                  2     3                       1.32626
    6 Stretch                  2     6                       1.37977
    7 Stretch                  3     4                       1.40253
    8 Stretch                  3    15                       1.07326
    9 Stretch                  4     5                       1.37579
   10 Stretch                  4    16                       1.07191
   11 Stretch                  5     6                       1.41648
   12 Stretch                  5    17                       1.07232
   13 Stretch                  6     7                       1.38528
   14 Stretch                  7     8                       1.38528
   15 Stretch                  7    18                       1.07961
   16 Stretch                  8     9                       1.37977
   17 Stretch                  8    12                       1.41648
   18 Stretch                  9    10                       1.32626
   19 Stretch                 10    11                       1.40253
   20 Stretch                 10    19                       1.07326
   21 Stretch                 11    12                       1.37579
   22 Stretch                 11    20                       1.07191
   23 Stretch                 12    21                       1.07232
   24 Bend                     1     2     3               126.93202
   25 Bend                     1     2     6               124.79804
   26 Bend                     1     9     8               124.79804
   27 Bend                     1     9    10               126.93202
   28 Bend                     2     1     9               107.00537
   29 Bend                     2     1    13               109.87117
   30 Bend                     2     1    14               109.87117
   31 Bend                     2     3     4               110.18157
   32 Bend                     2     3    15               120.83726
   33 Bend                     2     6     5               107.83957
   34 Bend                     2     6     7               121.22801
   35 Bend                     3     2     6               108.26994
   36 Bend                     3     4     5               106.84946
   37 Bend                     3     4    16               125.62266
   38 Bend                     4     3    15               128.98118
   39 Bend                     4     5     6               106.85946
   40 Bend                     4     5    17               127.88717
   41 Bend                     5     4    16               127.52789
   42 Bend                     5     6     7               130.93242
   43 Bend                     6     5    17               125.25337
   44 Bend                     6     7     8               120.94253
   45 Bend                     6     7    18               119.52874
   46 Bend                     7     8     9               121.22801
   47 Bend                     7     8    12               130.93242
   48 Bend                     8     7    18               119.52874
   49 Bend                     8     9    10               108.26994
   50 Bend                     8    12    11               106.85946
   51 Bend                     8    12    21               125.25337
   52 Bend                     9     1    13               109.87117
   53 Bend                     9     1    14               109.87117
   54 Bend                     9     8    12               107.83957
   55 Bend                     9    10    11               110.18157
   56 Bend                     9    10    19               120.83726
   57 Bend                    10    11    12               106.84946
   58 Bend                    10    11    20               125.62266
   59 Bend                    11    10    19               128.98118
   60 Bend                    11    12    21               127.88717
   61 Bend                    12    11    20               127.52789
   62 Bend                    13     1    14               110.29335
   63 Torsion                  1     2     3     4         180.00000
   64 Torsion                  1     2     3    15           0.00000
   65 Torsion                  1     2     6     5         180.00000
   66 Torsion                  1     2     6     7           0.00000
   67 Torsion                  1     9     8     7           0.00000
   68 Torsion                  1     9     8    12         180.00000
   69 Torsion                  1     9    10    11         180.00000
   70 Torsion                  1     9    10    19           0.00000
   71 Torsion                  2     1     9     8           0.00000
   72 Torsion                  2     1     9    10         180.00000
   73 Torsion                  2     3     4     5           0.00000
   74 Torsion                  2     3     4    16         180.00000
   75 Torsion                  2     6     5     4          -0.00000
   76 Torsion                  2     6     5    17         180.00000
   77 Torsion                  2     6     7     8           0.00000
   78 Torsion                  2     6     7    18         180.00000
   79 Torsion                  3     2     1     9         180.00000
   80 Torsion                  3     2     1    13          60.75882
   81 Torsion                  3     2     1    14         -60.75882
   82 Torsion                  3     2     6     5           0.00000
   83 Torsion                  3     2     6     7         180.00000
   84 Torsion                  3     4     5     6           0.00000
   85 Torsion                  3     4     5    17         180.00000
   86 Torsion                  4     3     2     6           0.00000
   87 Torsion                  4     5     6     7         180.00000
   88 Torsion                  5     4     3    15         180.00000
   89 Torsion                  5     6     7     8         180.00000
   90 Torsion                  5     6     7    18           0.00000
   91 Torsion                  6     2     1     9          -0.00000
   92 Torsion                  6     2     1    13        -119.24118
   93 Torsion                  6     2     1    14         119.24118
   94 Torsion                  6     2     3    15         180.00000
   95 Torsion                  6     5     4    16         180.00000
   96 Torsion                  6     7     8     9           0.00000
   97 Torsion                  6     7     8    12         180.00000
   98 Torsion                  7     6     5    17           0.00000
   99 Torsion                  7     8     9    10         180.00000
  100 Torsion                  7     8    12    11         180.00000
  101 Torsion                  7     8    12    21           0.00000
  102 Torsion                  8     9     1    13         119.24118
  103 Torsion                  8     9     1    14        -119.24118
  104 Torsion                  8     9    10    11           0.00000
  105 Torsion                  8     9    10    19         180.00000
  106 Torsion                  8    12    11    10           0.00000
  107 Torsion                  8    12    11    20         180.00000
  108 Torsion                  9     8     7    18         180.00000
  109 Torsion                  9     8    12    11           0.00000
  110 Torsion                  9     8    12    21         180.00000
  111 Torsion                  9    10    11    12           0.00000
  112 Torsion                  9    10    11    20         180.00000
  113 Torsion                 10     9     1    13         -60.75882
  114 Torsion                 10     9     1    14          60.75882
  115 Torsion                 10     9     8    12           0.00000
  116 Torsion                 10    11    12    21         180.00000
  117 Torsion                 12     8     7    18           0.00000
  118 Torsion                 12    11    10    19         180.00000
  119 Torsion                 15     3     4    16          -0.00000
  120 Torsion                 16     4     5    17           0.00000
  121 Torsion                 19    10    11    20           0.00000
  122 Torsion                 20    11    12    21           0.00000


            XYZ format geometry
            -------------------
    21
 geometry
 B                     0.00000000     0.00000000    -1.20495742
 N                    -1.24626252     0.00000000    -0.28286200
 C                    -2.51743903     0.00000000    -0.66110770
 C                    -3.35665203     0.00000000     0.46264333
 C                    -2.54026252     0.00000000     1.57003560
 C                    -1.20534751     0.00000000     1.09629866
 C                     0.00000000     0.00000000     1.77904977
 C                     1.20534751     0.00000000     1.09629866
 N                     1.24626252     0.00000000    -0.28286200
 C                     2.51743903     0.00000000    -0.66110770
 C                     3.35665203     0.00000000     0.46264333
 C                     2.54026252     0.00000000     1.57003560
 F                     0.00000000     1.12948840    -1.99153234
 F                     0.00000000    -1.12948840    -1.99153234
 H                    -2.78192653     0.00000000    -1.70126737
 H                    -4.42835154     0.00000000     0.44151217
 H                    -2.83069403     0.00000000     2.60227420
 H                     0.00000000     0.00000000     2.85866193
 H                     2.78192653     0.00000000    -1.70126737
 H                     4.42835154     0.00000000     0.44151217
 H                     2.83069403     0.00000000     2.60227420

 ==============================================================================
                                internuclear distances
 ------------------------------------------------------------------------------
       center one      |      center two      | atomic units |  angstroms
 ------------------------------------------------------------------------------
    2 N                |   1 B                |     2.92964  |     1.55030
    3 C                |   2 N                |     2.50626  |     1.32626
    4 C                |   3 C                |     2.65040  |     1.40253
    5 C                |   4 C                |     2.59987  |     1.37579
    6 C                |   2 N                |     2.60738  |     1.37977
    6 C                |   5 C                |     2.67677  |     1.41648
    7 C                |   6 C                |     2.61781  |     1.38528
    8 C                |   7 C                |     2.61781  |     1.38528
    9 N                |   1 B                |     2.92964  |     1.55030
    9 N                |   8 C                |     2.60738  |     1.37977
   10 C                |   9 N                |     2.50626  |     1.32626
   11 C                |  10 C                |     2.65040  |     1.40253
   12 C                |   8 C                |     2.67677  |     1.41648
   12 C                |  11 C                |     2.59987  |     1.37579
   13 F                |   1 B                |     2.60100  |     1.37639
   14 F                |   1 B                |     2.60100  |     1.37639
   15 H                |   3 C                |     2.02817  |     1.07326
   16 H                |   4 C                |     2.02561  |     1.07191
   17 H                |   5 C                |     2.02639  |     1.07232
   18 H                |   7 C                |     2.04017  |     1.07961
   19 H                |  10 C                |     2.02817  |     1.07326
   20 H                |  11 C                |     2.02561  |     1.07191
   21 H                |  12 C                |     2.02639  |     1.07232
 ------------------------------------------------------------------------------
                         number of included internuclear distances:         23
 ==============================================================================



 ==============================================================================
                                 internuclear angles
 ------------------------------------------------------------------------------
        center 1       |       center 2       |       center 3       |  degrees
 ------------------------------------------------------------------------------
    2 N                |   1 B                |   9 N                |   107.01
    2 N                |   1 B                |  13 F                |   109.87
    2 N                |   1 B                |  14 F                |   109.87
    9 N                |   1 B                |  13 F                |   109.87
    9 N                |   1 B                |  14 F                |   109.87
   13 F                |   1 B                |  14 F                |   110.29
    1 B                |   2 N                |   3 C                |   126.93
    1 B                |   2 N                |   6 C                |   124.80
    3 C                |   2 N                |   6 C                |   108.27
    2 N                |   3 C                |   4 C                |   110.18
    2 N                |   3 C                |  15 H                |   120.84
    4 C                |   3 C                |  15 H                |   128.98
    3 C                |   4 C                |   5 C                |   106.85
    3 C                |   4 C                |  16 H                |   125.62
    5 C                |   4 C                |  16 H                |   127.53
    4 C                |   5 C                |   6 C                |   106.86
    4 C                |   5 C                |  17 H                |   127.89
    6 C                |   5 C                |  17 H                |   125.25
    2 N                |   6 C                |   5 C                |   107.84
    2 N                |   6 C                |   7 C                |   121.23
    5 C                |   6 C                |   7 C                |   130.93
    6 C                |   7 C                |   8 C                |   120.94
    6 C                |   7 C                |  18 H                |   119.53
    8 C                |   7 C                |  18 H                |   119.53
    7 C                |   8 C                |   9 N                |   121.23
    7 C                |   8 C                |  12 C                |   130.93
    9 N                |   8 C                |  12 C                |   107.84
    1 B                |   9 N                |   8 C                |   124.80
    1 B                |   9 N                |  10 C                |   126.93
    8 C                |   9 N                |  10 C                |   108.27
    9 N                |  10 C                |  11 C                |   110.18
    9 N                |  10 C                |  19 H                |   120.84
   11 C                |  10 C                |  19 H                |   128.98
   10 C                |  11 C                |  12 C                |   106.85
   10 C                |  11 C                |  20 H                |   125.62
   12 C                |  11 C                |  20 H                |   127.53
    8 C                |  12 C                |  11 C                |   106.86
    8 C                |  12 C                |  21 H                |   125.25
   11 C                |  12 C                |  21 H                |   127.89
 ------------------------------------------------------------------------------
                            number of included internuclear angles:         39
 ==============================================================================





 Summary of "ao basis" -> "" (cartesian)
 ------------------------------------------------------------------------------
       Tag                 Description            Shells   Functions and Types
 ---------------- ------------------------------  ------  ---------------------
 *                           6-31G*                   on all atoms 




                           NWChem Geometry Optimization
                           ----------------------------




                 C9H7BN2F2 | Equilibrium Geometry | B3LYP/6-31G(d)


  no constraints, skipping    0.0000000000000000     
 maximum gradient threshold         (gmax) =   0.000450
 rms gradient threshold             (grms) =   0.000300
 maximum cartesian step threshold   (xmax) =   0.001800
 rms cartesian step threshold       (xrms) =   0.001200
 fixed trust radius                (trust) =   0.300000
 maximum step size to saddle      (sadstp) =   0.100000
 energy precision                  (eprec) =   5.0D-06
 maximum number of steps          (nptopt) =   20
 initial hessian option           (inhess) =    0
 line search option               (linopt) =    1
 hessian update option            (modupd) =    1
 saddle point option              (modsad) =    0
 initial eigen-mode to follow     (moddir) =    0
 initial variable to follow       (vardir) =    0
 follow first negative mode     (firstneg) =    T
 apply conjugacy                    (opcg) =    F
 source of zmatrix                         =   autoz   


          -------------------
          Energy Minimization
          -------------------


 Names of Z-matrix variables 
    1              2              3              4              5         
    6              7              8              9             10         
   11             12             13             14             15         
   16             17             18             19             20         
   21             22             23             24             25         
   26             27             28             29             30         
   31             32             33             34             35         
   36             37             38             39             40         
   41             42             43             44             45         
   46             47             48             49             50         
   51             52             53             54             55         
   56             57             58             59             60         
   61             62             63             64             65         
   66             67             68             69             70         
   71             72             73             74             75         
   76             77             78             79             80         
   81             82             83             84             85         
   86             87             88             89             90         
   91             92             93             94             95         
   96             97             98             99            100         
  101            102            103            104            105         
  106            107            108            109            110         
  111            112            113            114            115         
  116            117            118            119            120         
  121            122         

 Variables with the same non-blank name are constrained to be equal


 Using diagonal initial Hessian 
 Scaling for Hessian diagonals: bonds = 1.00  angles = 0.25  torsions = 0.10

          --------
          Step   0
          --------


                         Geometry "geometry" -> "geometry"
                         ---------------------------------

 Output coordinates in angstroms (scale by  1.889725989 to convert to a.u.)

  No.       Tag          Charge          X              Y              Z
 ---- ---------------- ---------- -------------- -------------- --------------
    1 B                    5.0000     0.00000000     0.00000000    -1.20495742
    2 N                    7.0000    -1.24626252     0.00000000    -0.28286200
    3 C                    6.0000    -2.51743903     0.00000000    -0.66110770
    4 C                    6.0000    -3.35665203     0.00000000     0.46264333
    5 C                    6.0000    -2.54026252     0.00000000     1.57003560
    6 C                    6.0000    -1.20534751     0.00000000     1.09629866
    7 C                    6.0000     0.00000000     0.00000000     1.77904977
    8 C                    6.0000     1.20534751     0.00000000     1.09629866
    9 N                    7.0000     1.24626252     0.00000000    -0.28286200
   10 C                    6.0000     2.51743903     0.00000000    -0.66110770
   11 C                    6.0000     3.35665203     0.00000000     0.46264333
   12 C                    6.0000     2.54026252     0.00000000     1.57003560
   13 F                    9.0000     0.00000000     1.12948840    -1.99153234
   14 F                    9.0000     0.00000000    -1.12948840    -1.99153234
   15 H                    1.0000    -2.78192653     0.00000000    -1.70126737
   16 H                    1.0000    -4.42835154     0.00000000     0.44151217
   17 H                    1.0000    -2.83069403     0.00000000     2.60227420
   18 H                    1.0000     0.00000000     0.00000000     2.85866193
   19 H                    1.0000     2.78192653     0.00000000    -1.70126737
   20 H                    1.0000     4.42835154     0.00000000     0.44151217
   21 H                    1.0000     2.83069403     0.00000000     2.60227420

      Atomic Mass 
      ----------- 

      B                 11.009310
      N                 14.003070
      C                 12.000000
      F                 18.998400
      H                  1.007825


 Effective nuclear repulsion energy (a.u.)     866.7103807726

            Nuclear Dipole moment (a.u.) 
            ----------------------------
        X                 Y               Z
 ---------------- ---------------- ----------------
    -0.0000000000     0.0000000000    -0.0000000000

      Symmetry information
      --------------------

 Group name             C2v       
 Group number             16
 Group order               4
 No. of unique centers    12

      Symmetry unique atoms

     1    2    3    4    5    6    7   13   15   16   17   18


                                 NWChem DFT Module
                                 -----------------


                 C9H7BN2F2 | Equilibrium Geometry | B3LYP/6-31G(d)


                      Basis "ao basis" -> "ao basis" (cartesian)
                      -----
  B (Boron)
  ---------
            Exponent  Coefficients 
       -------------- ---------------------------------------------------------
  1 S  2.06888230E+03  0.001866
  1 S  3.10649570E+02  0.014252
  1 S  7.06830330E+01  0.069552
  1 S  1.98610800E+01  0.232573
  1 S  6.29930480E+00  0.467079
  1 S  2.12702700E+00  0.363431

  2 S  4.72797100E+00 -0.130394
  2 S  1.19033770E+00 -0.130789
  2 S  3.59411700E-01  1.130944

  3 P  4.72797100E+00  0.074598
  3 P  1.19033770E+00  0.307847
  3 P  3.59411700E-01  0.743457

  4 S  1.26751200E-01  1.000000

  5 P  1.26751200E-01  1.000000

  6 D  6.00000000E-01  1.000000

  N (Nitrogen)
  ------------
            Exponent  Coefficients 
       -------------- ---------------------------------------------------------
  1 S  4.17351100E+03  0.001835
  1 S  6.27457900E+02  0.013995
  1 S  1.42902100E+02  0.068587
  1 S  4.02343300E+01  0.232241
  1 S  1.28202100E+01  0.469070
  1 S  4.39043700E+00  0.360455

  2 S  1.16263580E+01 -0.114961
  2 S  2.71628000E+00 -0.169118
  2 S  7.72218000E-01  1.145852

  3 P  1.16263580E+01  0.067580
  3 P  2.71628000E+00  0.323907
  3 P  7.72218000E-01  0.740895

  4 S  2.12031300E-01  1.000000

  5 P  2.12031300E-01  1.000000

  6 D  8.00000000E-01  1.000000

  C (Carbon)
  ----------
            Exponent  Coefficients 
       -------------- ---------------------------------------------------------
  1 S  3.04752490E+03  0.001835
  1 S  4.57369510E+02  0.014037
  1 S  1.03948690E+02  0.068843
  1 S  2.92101550E+01  0.232184
  1 S  9.28666300E+00  0.467941
  1 S  3.16392700E+00  0.362312

  2 S  7.86827240E+00 -0.119332
  2 S  1.88128850E+00 -0.160854
  2 S  5.44249300E-01  1.143456

  3 P  7.86827240E+00  0.068999
  3 P  1.88128850E+00  0.316424
  3 P  5.44249300E-01  0.744308

  4 S  1.68714400E-01  1.000000

  5 P  1.68714400E-01  1.000000

  6 D  8.00000000E-01  1.000000

  F (Fluorine)
  ------------
            Exponent  Coefficients 
       -------------- ---------------------------------------------------------
  1 S  7.00171309E+03  0.001820
  1 S  1.05136609E+03  0.013916
  1 S  2.39285690E+02  0.068405
  1 S  6.73974453E+01  0.233186
  1 S  2.15199573E+01  0.471267
  1 S  7.40310130E+00  0.356619

  2 S  2.08479528E+01 -0.108507
  2 S  4.80830834E+00 -0.146452
  2 S  1.34406986E+00  1.128689

  3 P  2.08479528E+01  0.071629
  3 P  4.80830834E+00  0.345912
  3 P  1.34406986E+00  0.722470

  4 S  3.58151393E-01  1.000000

  5 P  3.58151393E-01  1.000000

  6 D  8.00000000E-01  1.000000

  H (Hydrogen)
  ------------
            Exponent  Coefficients 
       -------------- ---------------------------------------------------------
  1 S  1.87311370E+01  0.033495
  1 S  2.82539370E+00  0.234727
  1 S  6.40121700E-01  0.813757

  2 S  1.61277800E-01  1.000000



 Summary of "ao basis" -> "ao basis" (cartesian)
 ------------------------------------------------------------------------------
       Tag                 Description            Shells   Functions and Types
 ---------------- ------------------------------  ------  ---------------------
 B                           6-31G*                  6       15   3s2p1d
 N                           6-31G*                  6       15   3s2p1d
 C                           6-31G*                  6       15   3s2p1d
 F                           6-31G*                  6       15   3s2p1d
 H                           6-31G*                  2        2   2s




 Summary of "ao basis" -> "ao basis" (cartesian)
 ------------------------------------------------------------------------------
       Tag                 Description            Shells   Functions and Types
 ---------------- ------------------------------  ------  ---------------------
 B                           6-31G*                  6       15   3s2p1d
 N                           6-31G*                  6       15   3s2p1d
 C                           6-31G*                  6       15   3s2p1d
 F                           6-31G*                  6       15   3s2p1d
 H                           6-31G*                  2        2   2s


      Symmetry analysis of basis
      --------------------------

        a1         90
        a2         26
        b1         71
        b2         37

  Caching 1-el integrals 

            General Information
            -------------------
          SCF calculation type: DFT
          Wavefunction type:  closed shell.
          No. of atoms     :    21
          No. of electrons :    98
           Alpha electrons :    49
            Beta electrons :    49
          Charge           :     0
          Spin multiplicity:     1
          Use of symmetry is: on ; symmetry adaption is: on 
          Maximum number of iterations:  30
          AO basis - number of functions:   224
                     number of shells:    98
          Convergence on energy requested:  1.00D-06
          Convergence on density requested:  1.00D-05
          Convergence on gradient requested:  5.00D-04

              XC Information
              --------------
                         B3LYP Method XC Potential
                     Hartree-Fock (Exact) Exchange  0.200          
                        Slater Exchange Functional  0.800 local    
                    Becke 1988 Exchange Functional  0.720 non-local
              Lee-Yang-Parr Correlation Functional  0.810          
                  VWN I RPA Correlation Functional  0.190 local    

             Grid Information
             ----------------
          Grid used for XC integration:  medium    
          Radial quadrature: Mura-Knowles        
          Angular quadrature: Lebedev. 
          Tag              B.-S. Rad. Rad. Pts. Rad. Cut. Ang. Pts.
          ---              ---------- --------- --------- ---------
          B                   0.85       49          11.0       434
          N                   0.65       49          13.0       434
          C                   0.70       49          14.0       434
          F                   0.50       49          13.0       434
          H                   0.35       45          14.0       434
          Grid pruning is: on 
          Number of quadrature shells:   572
          Spatial weights used:  Erf1

          Convergence Information
          -----------------------
          Convergence aids based upon iterative change in 
          total energy or number of iterations. 
          Levelshifting, if invoked, occurs when the 
          HOMO/LUMO gap drops below (HL_TOL):  1.00D-02
          DIIS, if invoked, will attempt to extrapolate 
          using up to (NFOCK): 10 stored Fock matrices.

                    Damping( 0%)  Levelshifting(0.5)       DIIS
                  --------------- ------------------- ---------------
          dE  on:    start            ASAP                start   
          dE off:    2 iters         30 iters            30 iters 


      Screening Tolerance Information
      -------------------------------
          Density screening/tol_rho:  1.00D-10
          AO Gaussian exp screening on grid/accAOfunc:  14
          CD Gaussian exp screening on grid/accCDfunc:  20
          XC Gaussian exp screening on grid/accXCfunc:  20
          Schwarz screening/accCoul:  1.00D-08


      Superposition of Atomic Density Guess
      -------------------------------------

 Sum of atomic energies:        -674.28814414

      Non-variational initial energy
      ------------------------------

 Total energy =    -683.584850
 1-e energy   =   -2642.645971
 2-e energy   =    1092.350740
 HOMO         =      -0.206299
 LUMO         =      -0.094041


      Symmetry analysis of molecular orbitals - initial
      -------------------------------------------------

  Numbering of irreducible representations: 

     1 a1          2 a2          3 b1          4 b2      

  Orbital symmetries:

     1 a1          2 b2          3 a1          4 b1          5 a1      
     6 b1          7 a1          8 b1          9 a1         10 b1      
    11 a1         12 b1         13 a1         14 a1         15 a1      
    16 b1         17 a1         18 b2         19 a1         20 a1      
    21 b1         22 b1         23 a1         24 a1         25 a1      
    26 b1         27 b1         28 a1         29 b1         30 b2      
    31 a1         32 a1         33 b1         34 a2         35 b2      
    36 b2         37 a2         38 a1         39 a1         40 b1      
    41 a1         42 b1         43 b1         44 a1         45 b1      
    46 b2         47 b2         48 a2         49 a2         50 b2      
    51 a2         52 b2         53 a2         54 a1         55 b2      
    56 b1         57 a1         58 a1         59 b1      

   Time after variat. SCF:      3.7
   Time prior to 1st pass:      3.7

 Integral file          = ./molecule.aoints.0
 Record size in doubles =  65536        No. of integs per rec  =  43688
 Max. records in memory =      0        Max. records in file   =  60402
 No. of bits per label  =      8        No. of bits per value  =     64


 #quartets = 3.002D+06 #integrals = 4.384D+07 #direct =  0.0% #cached =100.0%


 Grid_pts file          = ./molecule.gridpts.0
 Record size in doubles =  12289        No. of grid_pts per rec  =   3070
 Max. records in memory =     90        Max. recs in file   =    317036


           Memory utilization after 1st SCF pass: 
           Heap Space remaining (MW):       11.87            11870160
          Stack Space remaining (MW):       13.11            13105404

   convergence    iter        energy       DeltaE   RMS-Dens  Diis-err    time
 ---------------- ----- ----------------- --------- --------- ---------  ------
 d= 0,ls=0.0,diis     1   -681.1735442526 -1.55D+03  9.12D-03  2.00D+00    19.0
 d= 0,ls=0.0,diis     2   -681.2374180006 -6.39D-02  4.72D-03  1.54D+00    20.3
 d= 0,ls=0.0,diis     3   -681.3501766530 -1.13D-01  1.96D-03  2.47D-01    21.7
 d= 0,ls=0.0,diis     4   -681.3665016303 -1.63D-02  7.92D-04  5.47D-02    23.0
 d= 0,ls=0.0,diis     5   -681.3730765811 -6.57D-03  1.48D-04  1.54D-03    24.6
  Resetting Diis
 d= 0,ls=0.0,diis     6   -681.3732481275 -1.72D-04  4.82D-05  1.03D-04    26.2
 d= 0,ls=0.0,diis     7   -681.3732588653 -1.07D-05  4.90D-05  2.42D-05    27.8
 d= 0,ls=0.0,diis     8   -681.3732490683  9.80D-06  3.40D-05  9.81D-05    29.2
 d= 0,ls=0.0,diis     9   -681.3732619506 -1.29D-05  2.27D-06  3.67D-07    30.7
 d= 0,ls=0.0,diis    10   -681.3732619920 -4.14D-08  7.50D-07  3.95D-08    32.2


         Total DFT energy =     -681.373261991994
      One electron energy =    -2651.700720764409
           Coulomb energy =     1194.160976084250
    Exchange-Corr. energy =      -90.543898084451
 Nuclear repulsion energy =      866.710380772616

 Numeric. integr. density =       97.999995965701

     Total iterative time =     28.5s



                  Occupations of the irreducible representations
                  ----------------------------------------------

                     irrep           alpha         beta
                     --------     --------     --------
                     a1               22.0         22.0
                     a2                4.0          4.0
                     b1               16.0         16.0
                     b2                7.0          7.0


                       DFT Final Molecular Orbital Analysis
                       ------------------------------------

 Vector    1  Occ=2.000000D+00  E=-2.462791D+01  Symmetry=a1
              MO Center= -2.8D-20, -6.3D-15, -2.0D+00, r^2= 1.3D+00
   Bfn.  Coefficient  Atom+Function         Bfn.  Coefficient  Atom+Function  
  ----- ------------  ---------------      ----- ------------  ---------------
   181      0.702058  13 F  s               196      0.702058  14 F  s         

 Vector    2  Occ=2.000000D+00  E=-2.462791D+01  Symmetry=b2
              MO Center= -2.8D-20,  5.9D-15, -2.0D+00, r^2= 1.3D+00
   Bfn.  Coefficient  Atom+Function         Bfn.  Coefficient  Atom+Function  
  ----- ------------  ---------------      ----- ------------  ---------------
   181      0.702074  13 F  s               196     -0.702074  14 F  s         

 Vector    3  Occ=2.000000D+00  E=-1.436734D+01  Symmetry=b1
              MO Center=  2.0D-08, -4.2D-21, -2.8D-01, r^2= 1.6D+00
   Bfn.  Coefficient  Atom+Function         Bfn.  Coefficient  Atom+Function  
  ----- ------------  ---------------      ----- ------------  ---------------
    16      0.701876   2 N  s               121     -0.701876   9 N  s         

 Vector    4  Occ=2.000000D+00  E=-1.436734D+01  Symmetry=a1
              MO Center= -2.0D-08,  1.3D-20, -2.8D-01, r^2= 1.6D+00
   Bfn.  Coefficient  Atom+Function         Bfn.  Coefficient  Atom+Function  
  ----- ------------  ---------------      ----- ------------  ---------------
    16      0.701866   2 N  s               121      0.701866   9 N  s         

 Vector    5  Occ=2.000000D+00  E=-1.024121D+01  Symmetry=a1
              MO Center= -1.6D-14,  4.8D-20,  1.8D+00, r^2= 3.2D-02
   Bfn.  Coefficient  Atom+Function         Bfn.  Coefficient  Atom+Function  
  ----- ------------  ---------------      ----- ------------  ---------------
    91      0.991851   7 C  s                92      0.050087   7 C  s         
    76      0.030988   6 C  s               106      0.030988   8 C  s         

 Vector    6  Occ=2.000000D+00  E=-1.023597D+01  Symmetry=b1
              MO Center=  3.6D-10, -2.0D-18, -6.6D-01, r^2= 6.4D+00
   Bfn.  Coefficient  Atom+Function         Bfn.  Coefficient  Atom+Function  
  ----- ------------  ---------------      ----- ------------  ---------------
    31      0.701973   3 C  s               136     -0.701973  10 C  s         
    32      0.034982   3 C  s               137     -0.034982  10 C  s         

 Vector    7  Occ=2.000000D+00  E=-1.023596D+01  Symmetry=a1
              MO Center= -3.6D-10,  2.3D-19, -6.6D-01, r^2= 6.4D+00
   Bfn.  Coefficient  Atom+Function         Bfn.  Coefficient  Atom+Function  
  ----- ------------  ---------------      ----- ------------  ---------------
    31      0.701967   3 C  s               136      0.701967  10 C  s         
    32      0.035008   3 C  s               137      0.035008  10 C  s         

 Vector    8  Occ=2.000000D+00  E=-1.023179D+01  Symmetry=b1
              MO Center=  1.3D-14, -1.8D-24,  1.1D+00, r^2= 1.5D+00
   Bfn.  Coefficient  Atom+Function         Bfn.  Coefficient  Atom+Function  
  ----- ------------  ---------------      ----- ------------  ---------------
    76      0.701974   6 C  s               106     -0.701974   8 C  s         
    77      0.035155   6 C  s               107     -0.035155   8 C  s         

 Vector    9  Occ=2.000000D+00  E=-1.023177D+01  Symmetry=a1
              MO Center=  1.0D-15, -7.7D-22,  1.1D+00, r^2= 1.5D+00
   Bfn.  Coefficient  Atom+Function         Bfn.  Coefficient  Atom+Function  
  ----- ------------  ---------------      ----- ------------  ---------------
    76      0.701285   6 C  s               106      0.701285   8 C  s         
    91     -0.044400   7 C  s                77      0.034973   6 C  s         
   107      0.034973   8 C  s         

 Vector   10  Occ=2.000000D+00  E=-1.020494D+01  Symmetry=b1
              MO Center=  1.0D-15,  2.3D-25,  1.6D+00, r^2= 6.5D+00
   Bfn.  Coefficient  Atom+Function         Bfn.  Coefficient  Atom+Function  
  ----- ------------  ---------------      ----- ------------  ---------------
    61      0.701706   5 C  s               166     -0.701706  12 C  s         
    62      0.035351   5 C  s               167     -0.035351  12 C  s         

 Vector   11  Occ=2.000000D+00  E=-1.020494D+01  Symmetry=a1
              MO Center=  9.3D-16, -1.0D-21,  1.6D+00, r^2= 6.5D+00
   Bfn.  Coefficient  Atom+Function         Bfn.  Coefficient  Atom+Function  
  ----- ------------  ---------------      ----- ------------  ---------------
    61      0.701696   5 C  s               166      0.701696  12 C  s         
    62      0.035289   5 C  s               167      0.035289  12 C  s         

 Vector   12  Occ=2.000000D+00  E=-1.019363D+01  Symmetry=b1
              MO Center= -2.9D-16,  2.2D-24,  4.6D-01, r^2= 1.1D+01
   Bfn.  Coefficient  Atom+Function         Bfn.  Coefficient  Atom+Function  
  ----- ------------  ---------------      ----- ------------  ---------------
    46      0.701719   4 C  s               151     -0.701719  11 C  s         
    47      0.035453   4 C  s               152     -0.035453  11 C  s         

 Vector   13  Occ=2.000000D+00  E=-1.019363D+01  Symmetry=a1
              MO Center=  1.9D-16,  5.9D-20,  4.6D-01, r^2= 1.1D+01
   Bfn.  Coefficient  Atom+Function         Bfn.  Coefficient  Atom+Function  
  ----- ------------  ---------------      ----- ------------  ---------------
    46      0.701710   4 C  s               151      0.701710  11 C  s         
    47      0.035403   4 C  s               152      0.035403  11 C  s         

 Vector   14  Occ=2.000000D+00  E=-6.811127D+00  Symmetry=a1
              MO Center= -3.2D-20,  2.1D-20, -1.2D+00, r^2= 4.1D-02
   Bfn.  Coefficient  Atom+Function         Bfn.  Coefficient  Atom+Function  
  ----- ------------  ---------------      ----- ------------  ---------------
     1      0.993274   1 B  s                 2      0.054479   1 B  s         

 Vector   15  Occ=2.000000D+00  E=-1.148927D+00  Symmetry=a1
              MO Center= -4.3D-18, -2.1D-17, -1.9D+00, r^2= 1.4D+00
   Bfn.  Coefficient  Atom+Function         Bfn.  Coefficient  Atom+Function  
  ----- ------------  ---------------      ----- ------------  ---------------
   182      0.346421  13 F  s               197      0.346421  14 F  s         
   186      0.327131  13 F  s               201      0.327131  14 F  s         
   181     -0.156374  13 F  s               196     -0.156374  14 F  s         
     2      0.111914   1 B  s                 1     -0.080392   1 B  s         
     5     -0.069530   1 B  pz              184     -0.053109  13 F  py        

 Vector   16  Occ=2.000000D+00  E=-1.114911D+00  Symmetry=b2
              MO Center= -1.2D-16,  1.3D-15, -1.9D+00, r^2= 1.5D+00
   Bfn.  Coefficient  Atom+Function         Bfn.  Coefficient  Atom+Function  
  ----- ------------  ---------------      ----- ------------  ---------------
   182      0.369637  13 F  s               197     -0.369637  14 F  s         
   186      0.326049  13 F  s               201     -0.326049  14 F  s         
   181     -0.163443  13 F  s               196      0.163443  14 F  s         
     4      0.123423   1 B  py               14     -0.055233   1 B  dyz       
   184     -0.038150  13 F  py              199     -0.038150  14 F  py        

 Vector   17  Occ=2.000000D+00  E=-1.003586D+00  Symmetry=a1
              MO Center= -5.3D-17, -1.2D-15,  7.9D-02, r^2= 3.6D+00
   Bfn.  Coefficient  Atom+Function         Bfn.  Coefficient  Atom+Function  
  ----- ------------  ---------------      ----- ------------  ---------------
    21      0.277369   2 N  s               126      0.277369   9 N  s         
    17      0.228071   2 N  s               122      0.228071   9 N  s         
    77      0.136022   6 C  s               107      0.136022   8 C  s         
    32      0.120674   3 C  s               137      0.120674  10 C  s         
    16     -0.115408   2 N  s               121     -0.115408   9 N  s         

 Vector   18  Occ=2.000000D+00  E=-9.871565D-01  Symmetry=b1
              MO Center=  5.1D-15,  3.3D-16,  2.6D-02, r^2= 4.0D+00
   Bfn.  Coefficient  Atom+Function         Bfn.  Coefficient  Atom+Function  
  ----- ------------  ---------------      ----- ------------  ---------------
    21      0.269948   2 N  s               126     -0.269948   9 N  s         
    17      0.233207   2 N  s               122     -0.233207   9 N  s         
    32      0.138199   3 C  s               137     -0.138199  10 C  s         
    77      0.119374   6 C  s               107     -0.119374   8 C  s         
    16     -0.116009   2 N  s               121      0.116009   9 N  s         

 Vector   19  Occ=2.000000D+00  E=-8.246114D-01  Symmetry=a1
              MO Center= -1.9D-15, -2.6D-16,  9.9D-01, r^2= 3.3D+00
   Bfn.  Coefficient  Atom+Function         Bfn.  Coefficient  Atom+Function  
  ----- ------------  ---------------      ----- ------------  ---------------
    92      0.298798   7 C  s                96      0.185389   7 C  s         
    77      0.169808   6 C  s               107      0.169808   8 C  s         
    91     -0.150880   7 C  s                32     -0.131744   3 C  s         
   137     -0.131744  10 C  s                78      0.102753   6 C  px        
   108     -0.102753   8 C  px               81      0.098722   6 C  s         

 Vector   20  Occ=2.000000D+00  E=-7.987935D-01  Symmetry=a1
              MO Center= -3.1D-13,  2.5D-16,  6.3D-01, r^2= 7.4D+00
   Bfn.  Coefficient  Atom+Function         Bfn.  Coefficient  Atom+Function  
  ----- ------------  ---------------      ----- ------------  ---------------
    62     -0.188613   5 C  s               167     -0.188613  12 C  s         
    21      0.180344   2 N  s               126      0.180344   9 N  s         
    47     -0.176458   4 C  s               152     -0.176458  11 C  s         
    17      0.150192   2 N  s               122      0.150192   9 N  s         
    51     -0.129292   4 C  s               156     -0.129292  11 C  s         

 Vector   21  Occ=2.000000D+00  E=-7.868833D-01  Symmetry=b1
              MO Center=  3.0D-13,  5.8D-20,  7.0D-01, r^2= 7.7D+00
   Bfn.  Coefficient  Atom+Function         Bfn.  Coefficient  Atom+Function  
  ----- ------------  ---------------      ----- ------------  ---------------
    62     -0.200601   5 C  s               167      0.200601  12 C  s         
    21      0.189014   2 N  s               126     -0.189014   9 N  s         
    47     -0.171109   4 C  s               152      0.171109  11 C  s         
    17      0.160528   2 N  s               122     -0.160528   9 N  s         
    66     -0.151382   5 C  s               171      0.151382  12 C  s         

 Vector   22  Occ=2.000000D+00  E=-7.361048D-01  Symmetry=b1
              MO Center=  1.3D-14,  4.5D-16,  3.3D-01, r^2= 6.7D+00
   Bfn.  Coefficient  Atom+Function         Bfn.  Coefficient  Atom+Function  
  ----- ------------  ---------------      ----- ------------  ---------------
    77     -0.204316   6 C  s               107      0.204316   8 C  s         
    32      0.187708   3 C  s               137     -0.187708  10 C  s         
    93      0.141854   7 C  px               47      0.137218   4 C  s         
   152     -0.137218  11 C  s                36      0.134750   3 C  s         
   141     -0.134750  10 C  s                81     -0.133843   6 C  s         

 Vector   23  Occ=2.000000D+00  E=-6.768336D-01  Symmetry=a1
              MO Center= -1.8D-14, -3.9D-16,  4.7D-01, r^2= 6.9D+00
   Bfn.  Coefficient  Atom+Function         Bfn.  Coefficient  Atom+Function  
  ----- ------------  ---------------      ----- ------------  ---------------
    92      0.224450   7 C  s                96      0.202208   7 C  s         
    32      0.192685   3 C  s               137      0.192685  10 C  s         
    36      0.152044   3 C  s               141      0.152044  10 C  s         
    62     -0.128666   5 C  s               167     -0.128666  12 C  s         
    78      0.122746   6 C  px              108     -0.122746   8 C  px        

 Vector   24  Occ=2.000000D+00  E=-6.135247D-01  Symmetry=a1
              MO Center= -2.7D-14, -3.7D-16,  3.2D-01, r^2= 8.3D+00
   Bfn.  Coefficient  Atom+Function         Bfn.  Coefficient  Atom+Function  
  ----- ------------  ---------------      ----- ------------  ---------------
    18      0.200857   2 N  px              123     -0.200857   9 N  px        
    47      0.177809   4 C  s               152      0.177809  11 C  s         
    33     -0.129271   3 C  px              138      0.129271  10 C  px        
    51      0.128063   4 C  s               156      0.128063  11 C  s         
    78      0.120748   6 C  px              108     -0.120748   8 C  px        

 Vector   25  Occ=2.000000D+00  E=-5.970541D-01  Symmetry=a1
              MO Center=  1.2D-13,  4.1D-15,  4.9D-01, r^2= 6.6D+00
   Bfn.  Coefficient  Atom+Function         Bfn.  Coefficient  Atom+Function  
  ----- ------------  ---------------      ----- ------------  ---------------
    20      0.204605   2 N  pz              125      0.204605   9 N  pz        
     2     -0.155497   1 B  s                62     -0.133082   5 C  s         
   167     -0.133082  12 C  s                80     -0.120691   6 C  pz        
   110     -0.120691   8 C  pz               66     -0.117778   5 C  s         
   171     -0.117778  12 C  s                24      0.107061   2 N  pz        

 Vector   26  Occ=2.000000D+00  E=-5.874471D-01  Symmetry=b1
              MO Center= -7.2D-14,  8.3D-17,  5.6D-01, r^2= 7.7D+00
   Bfn.  Coefficient  Atom+Function         Bfn.  Coefficient  Atom+Function  
  ----- ------------  ---------------      ----- ------------  ---------------
    20      0.198111   2 N  pz              125     -0.198111   9 N  pz        
    80     -0.156549   6 C  pz              110      0.156549   8 C  pz        
    62     -0.139237   5 C  s               167      0.139237  12 C  s         
    35      0.133847   3 C  pz              140     -0.133847  10 C  pz        
    66     -0.128530   5 C  s               171      0.128530  12 C  s         

 Vector   27  Occ=2.000000D+00  E=-5.839372D-01  Symmetry=b1
              MO Center= -2.1D-14,  1.4D-16,  5.2D-01, r^2= 7.7D+00
   Bfn.  Coefficient  Atom+Function         Bfn.  Coefficient  Atom+Function  
  ----- ------------  ---------------      ----- ------------  ---------------
    93      0.234137   7 C  px               50      0.149331   4 C  pz        
   155     -0.149331  11 C  pz               32     -0.145583   3 C  s         
    77     -0.145912   6 C  s               107      0.145912   8 C  s         
   137      0.145583  10 C  s                63     -0.128881   5 C  px        
   168     -0.128881  12 C  px               21      0.121791   2 N  s         

 Vector   28  Occ=2.000000D+00  E=-5.488793D-01  Symmetry=b1
              MO Center=  3.5D-14,  2.2D-17,  3.0D-01, r^2= 9.1D+00
   Bfn.  Coefficient  Atom+Function         Bfn.  Coefficient  Atom+Function  
  ----- ------------  ---------------      ----- ------------  ---------------
    18      0.185751   2 N  px              123      0.185751   9 N  px        
    48     -0.177462   4 C  px              153     -0.177462  11 C  px        
    93     -0.163477   7 C  px               78      0.158198   6 C  px        
   108      0.158198   8 C  px                3     -0.145237   1 B  px        
   213      0.134577  16 H  s               221     -0.134577  20 H  s         

 Vector   29  Occ=2.000000D+00  E=-5.169898D-01  Symmetry=a1
              MO Center= -1.2D-14,  7.1D-18,  4.8D-01, r^2= 8.3D+00
   Bfn.  Coefficient  Atom+Function         Bfn.  Coefficient  Atom+Function  
  ----- ------------  ---------------      ----- ------------  ---------------
    95      0.238280   7 C  pz               96      0.235493   7 C  s         
   217      0.183448  18 H  s                35      0.175108   3 C  pz        
   140      0.175108  10 C  pz              211     -0.147443  15 H  s         
   219     -0.147443  19 H  s               218      0.127127  18 H  s         
    66     -0.121582   5 C  s               171     -0.121582  12 C  s         

 Vector   30  Occ=2.000000D+00  E=-4.928001D-01  Symmetry=a1
              MO Center= -1.7D-14, -5.7D-14, -6.5D-01, r^2= 7.2D+00
   Bfn.  Coefficient  Atom+Function         Bfn.  Coefficient  Atom+Function  
  ----- ------------  ---------------      ----- ------------  ---------------
   184      0.264676  13 F  py              199     -0.264676  14 F  py        
     2     -0.215243   1 B  s               188      0.168013  13 F  py        
   203     -0.168013  14 F  py              186      0.134862  13 F  s         
   201      0.134862  14 F  s               185     -0.127190  13 F  pz        
   200     -0.127190  14 F  pz               63     -0.123294   5 C  px        

 Vector   31  Occ=2.000000D+00  E=-4.696090D-01  Symmetry=b2
              MO Center=  2.2D-15,  9.9D-14, -8.4D-01, r^2= 3.9D+00
   Bfn.  Coefficient  Atom+Function         Bfn.  Coefficient  Atom+Function  
  ----- ------------  ---------------      ----- ------------  ---------------
     4      0.238941   1 B  py              185      0.232868  13 F  pz        
   200     -0.232868  14 F  pz               19      0.200039   2 N  py        
   124      0.200039   9 N  py              184     -0.156454  13 F  py        
   186     -0.155732  13 F  s               199     -0.156454  14 F  py        
   201      0.155732  14 F  s               189      0.138035  13 F  pz        

 Vector   32  Occ=2.000000D+00  E=-4.582160D-01  Symmetry=a1
              MO Center= -3.0D-15, -5.0D-14,  3.3D-02, r^2= 5.5D+00
   Bfn.  Coefficient  Atom+Function         Bfn.  Coefficient  Atom+Function  
  ----- ------------  ---------------      ----- ------------  ---------------
    95      0.274354   7 C  pz              184      0.226683  13 F  py        
   199     -0.226683  14 F  py                5      0.221812   1 B  pz        
    96     -0.222213   7 C  s                18      0.174853   2 N  px        
   123     -0.174853   9 N  px               99      0.165912   7 C  pz        
    78     -0.149903   6 C  px              108      0.149903   8 C  px        

 Vector   33  Occ=2.000000D+00  E=-4.536551D-01  Symmetry=b1
              MO Center= -1.4D-14,  6.7D-16,  3.4D-01, r^2= 7.2D+00
   Bfn.  Coefficient  Atom+Function         Bfn.  Coefficient  Atom+Function  
  ----- ------------  ---------------      ----- ------------  ---------------
    20      0.211094   2 N  pz              125     -0.211094   9 N  pz        
    80     -0.198246   6 C  pz              110      0.198246   8 C  pz        
    93      0.192645   7 C  px               65      0.160131   5 C  pz        
   170     -0.160131  12 C  pz               35     -0.127296   3 C  pz        
   140      0.127296  10 C  pz                3      0.126313   1 B  px        

 Vector   34  Occ=2.000000D+00  E=-4.383786D-01  Symmetry=b1
              MO Center= -4.2D-13,  1.6D-16, -2.3D-01, r^2= 7.4D+00
   Bfn.  Coefficient  Atom+Function         Bfn.  Coefficient  Atom+Function  
  ----- ------------  ---------------      ----- ------------  ---------------
    18      0.223914   2 N  px              123      0.223914   9 N  px        
     3     -0.176038   1 B  px              183     -0.176330  13 F  px        
   198     -0.176330  14 F  px               33     -0.165931   3 C  px        
   138     -0.165931  10 C  px               65     -0.150457   5 C  pz        
   170      0.150457  12 C  pz               93      0.140649   7 C  px        

 Vector   35  Occ=2.000000D+00  E=-4.364647D-01  Symmetry=a1
              MO Center=  4.0D-13,  6.5D-15,  4.5D-01, r^2= 1.1D+01
   Bfn.  Coefficient  Atom+Function         Bfn.  Coefficient  Atom+Function  
  ----- ------------  ---------------      ----- ------------  ---------------
    48      0.260460   4 C  px              153     -0.260460  11 C  px        
   213     -0.160524  16 H  s               221     -0.160524  20 H  s         
    95     -0.151157   7 C  pz               96      0.150849   7 C  s         
   214     -0.144689  16 H  s               222     -0.144689  20 H  s         
    65     -0.128301   5 C  pz              170     -0.128301  12 C  pz        

 Vector   36  Occ=2.000000D+00  E=-4.236592D-01  Symmetry=a2
              MO Center=  1.7D-12,  9.2D-16, -2.5D-03, r^2= 5.4D+00
   Bfn.  Coefficient  Atom+Function         Bfn.  Coefficient  Atom+Function  
  ----- ------------  ---------------      ----- ------------  ---------------
    19      0.262621   2 N  py              124     -0.262621   9 N  py        
    34      0.177582   3 C  py              139     -0.177582  10 C  py        
    23      0.167125   2 N  py              128     -0.167125   9 N  py        
    79      0.158667   6 C  py              109     -0.158667   8 C  py        
    49      0.119083   4 C  py              154     -0.119083  11 C  py        

 Vector   37  Occ=2.000000D+00  E=-4.233925D-01  Symmetry=b2
              MO Center= -1.7D-12, -3.8D-15, -5.9D-01, r^2= 5.1D+00
   Bfn.  Coefficient  Atom+Function         Bfn.  Coefficient  Atom+Function  
  ----- ------------  ---------------      ----- ------------  ---------------
   185      0.218682  13 F  pz              200     -0.218682  14 F  pz        
   184     -0.215129  13 F  py              199     -0.215129  14 F  py        
     4      0.203874   1 B  py               79     -0.164027   6 C  py        
   109     -0.164027   8 C  py               94     -0.143075   7 C  py        
   189      0.137364  13 F  pz              204     -0.137364  14 F  pz        

 Vector   38  Occ=2.000000D+00  E=-4.123357D-01  Symmetry=a1
              MO Center=  1.1D-13, -1.2D-15,  9.6D-01, r^2= 9.6D+00
   Bfn.  Coefficient  Atom+Function         Bfn.  Coefficient  Atom+Function  
  ----- ------------  ---------------      ----- ------------  ---------------
    65      0.203417   5 C  pz              170      0.203417  12 C  pz        
   216      0.158386  17 H  s               224      0.158386  21 H  s         
    50     -0.157019   4 C  pz              155     -0.157019  11 C  pz        
    35      0.153609   3 C  pz              140      0.153609  10 C  pz        
   215      0.153489  17 H  s               223      0.153489  21 H  s         

 Vector   39  Occ=2.000000D+00  E=-4.021261D-01  Symmetry=a1
              MO Center= -1.4D-12,  1.4D-15,  1.1D-04, r^2= 7.9D+00
   Bfn.  Coefficient  Atom+Function         Bfn.  Coefficient  Atom+Function  
  ----- ------------  ---------------      ----- ------------  ---------------
    35      0.187847   3 C  pz              140      0.187847  10 C  pz        
    50     -0.173793   4 C  pz              155     -0.173793  11 C  pz        
    95     -0.172471   7 C  pz               80      0.157985   6 C  pz        
   110      0.157985   8 C  pz              185      0.143932  13 F  pz        
   200      0.143932  14 F  pz               20     -0.141464   2 N  pz        

 Vector   40  Occ=2.000000D+00  E=-4.017572D-01  Symmetry=b1
              MO Center=  1.2D-12,  6.1D-17,  1.9D-01, r^2= 1.0D+01
   Bfn.  Coefficient  Atom+Function         Bfn.  Coefficient  Atom+Function  
  ----- ------------  ---------------      ----- ------------  ---------------
    35      0.223933   3 C  pz              140     -0.223933  10 C  pz        
    50     -0.219685   4 C  pz              155      0.219685  11 C  pz        
    65      0.175717   5 C  pz              170     -0.175717  12 C  pz        
    33     -0.140744   3 C  px              138     -0.140744  10 C  px        
    48      0.122044   4 C  px              153      0.122044  11 C  px        

 Vector   41  Occ=2.000000D+00  E=-3.911817D-01  Symmetry=b1
              MO Center=  7.2D-14,  1.1D-15,  8.7D-01, r^2= 8.6D+00
   Bfn.  Coefficient  Atom+Function         Bfn.  Coefficient  Atom+Function  
  ----- ------------  ---------------      ----- ------------  ---------------
    78     -0.261853   6 C  px              108     -0.261853   8 C  px        
    63      0.258535   5 C  px              168      0.258535  12 C  px        
    93      0.232228   7 C  px               48     -0.190612   4 C  px        
   153     -0.190612  11 C  px               50     -0.131604   4 C  pz        
   155      0.131604  11 C  pz              213      0.125922  16 H  s         

 Vector   42  Occ=2.000000D+00  E=-3.532948D-01  Symmetry=a1
              MO Center= -1.9D-15,  6.4D-15, -1.5D+00, r^2= 3.4D+00
   Bfn.  Coefficient  Atom+Function         Bfn.  Coefficient  Atom+Function  
  ----- ------------  ---------------      ----- ------------  ---------------
   185      0.395703  13 F  pz              200      0.395703  14 F  pz        
   189      0.264115  13 F  pz              204      0.264115  14 F  pz        
     9      0.196244   1 B  pz               20      0.149029   2 N  pz        
   125      0.149029   9 N  pz               21     -0.133610   2 N  s         
   126     -0.133610   9 N  s                96      0.128590   7 C  s         

 Vector   43  Occ=2.000000D+00  E=-3.513331D-01  Symmetry=a2
              MO Center=  5.7D-15, -3.2D-15, -1.7D+00, r^2= 3.1D+00
   Bfn.  Coefficient  Atom+Function         Bfn.  Coefficient  Atom+Function  
  ----- ------------  ---------------      ----- ------------  ---------------
   183      0.443689  13 F  px              198     -0.443689  14 F  px        
   187      0.321650  13 F  px              202     -0.321650  14 F  px        
    64      0.077489   5 C  py              169     -0.077489  12 C  py        
    49      0.068610   4 C  py              154     -0.068610  11 C  py        
    79      0.062703   6 C  py              109     -0.062703   8 C  py        

 Vector   44  Occ=2.000000D+00  E=-3.342747D-01  Symmetry=b2
              MO Center= -3.2D-16, -6.0D-15, -1.7D+00, r^2= 2.6D+00
   Bfn.  Coefficient  Atom+Function         Bfn.  Coefficient  Atom+Function  
  ----- ------------  ---------------      ----- ------------  ---------------
   184      0.379349  13 F  py              199      0.379349  14 F  py        
   185      0.263505  13 F  pz              200     -0.263505  14 F  pz        
   188      0.260304  13 F  py              203      0.260304  14 F  py        
   189      0.179761  13 F  pz              204     -0.179761  14 F  pz        
     8      0.132170   1 B  py               94     -0.082832   7 C  py        

 Vector   45  Occ=2.000000D+00  E=-3.303628D-01  Symmetry=b1
              MO Center= -2.2D-15,  4.3D-15, -1.1D+00, r^2= 3.6D+00
   Bfn.  Coefficient  Atom+Function         Bfn.  Coefficient  Atom+Function  
  ----- ------------  ---------------      ----- ------------  ---------------
   183      0.356273  13 F  px              198      0.356273  14 F  px        
   187      0.236804  13 F  px              202      0.236804  14 F  px        
    21      0.234366   2 N  s               126     -0.234366   9 N  s         
    18      0.198378   2 N  px              123      0.198378   9 N  px        
     7      0.187968   1 B  px               20     -0.165465   2 N  pz        

 Vector   46  Occ=2.000000D+00  E=-3.081291D-01  Symmetry=b2
              MO Center= -4.6D-14, -8.1D-17,  6.1D-01, r^2= 5.6D+00
   Bfn.  Coefficient  Atom+Function         Bfn.  Coefficient  Atom+Function  
  ----- ------------  ---------------      ----- ------------  ---------------
    94      0.335997   7 C  py               98      0.242285   7 C  py        
    34     -0.213442   3 C  py              139     -0.213442  10 C  py        
    79      0.183592   6 C  py              109      0.183592   8 C  py        
    49     -0.149528   4 C  py              154     -0.149528  11 C  py        
    38     -0.138827   3 C  py              143     -0.138827  10 C  py        

 Vector   47  Occ=2.000000D+00  E=-2.679308D-01  Symmetry=b2
              MO Center= -7.4D-14,  5.0D-16,  4.6D-01, r^2= 7.9D+00
   Bfn.  Coefficient  Atom+Function         Bfn.  Coefficient  Atom+Function  
  ----- ------------  ---------------      ----- ------------  ---------------
    19      0.257638   2 N  py              124      0.257638   9 N  py        
    64     -0.242349   5 C  py              169     -0.242349  12 C  py        
    49     -0.222893   4 C  py              154     -0.222893  11 C  py        
    23      0.186379   2 N  py              128      0.186379   9 N  py        
    68     -0.181092   5 C  py              173     -0.181092  12 C  py        

 Vector   48  Occ=2.000000D+00  E=-2.615244D-01  Symmetry=a2
              MO Center=  8.1D-14, -4.1D-15,  5.0D-01, r^2= 7.7D+00
   Bfn.  Coefficient  Atom+Function         Bfn.  Coefficient  Atom+Function  
  ----- ------------  ---------------      ----- ------------  ---------------
    19      0.276214   2 N  py              124     -0.276214   9 N  py        
    64     -0.249995   5 C  py              169      0.249995  12 C  py        
    49     -0.211047   4 C  py              154      0.211047  11 C  py        
    23      0.206233   2 N  py              128     -0.206233   9 N  py        
    68     -0.181328   5 C  py              173      0.181328  12 C  py        

 Vector   49  Occ=2.000000D+00  E=-2.198546D-01  Symmetry=a2
              MO Center=  3.7D-14, -3.0D-16,  4.2D-01, r^2= 7.0D+00
   Bfn.  Coefficient  Atom+Function         Bfn.  Coefficient  Atom+Function  
  ----- ------------  ---------------      ----- ------------  ---------------
    79      0.289844   6 C  py              109     -0.289844   8 C  py        
    34     -0.252815   3 C  py              139      0.252815  10 C  py        
    83      0.215280   6 C  py              113     -0.215280   8 C  py        
    38     -0.190280   3 C  py              143      0.190280  10 C  py        
    49     -0.181659   4 C  py              154      0.181659  11 C  py        

 Vector   50  Occ=0.000000D+00  E=-1.040264D-01  Symmetry=b2
              MO Center= -1.7D-16,  4.2D-16,  7.5D-01, r^2= 6.5D+00
   Bfn.  Coefficient  Atom+Function         Bfn.  Coefficient  Atom+Function  
  ----- ------------  ---------------      ----- ------------  ---------------
    94      0.358537   7 C  py               98      0.342417   7 C  py        
    34      0.233437   3 C  py              139      0.233437  10 C  py        
    38      0.224815   3 C  py               64     -0.225089   5 C  py        
   143      0.224815  10 C  py              169     -0.225089  12 C  py        
    68     -0.217451   5 C  py              173     -0.217451  12 C  py        

 Vector   51  Occ=0.000000D+00  E= 3.054777D-02  Symmetry=a2
              MO Center= -9.8D-17, -3.2D-17,  2.7D-01, r^2= 5.9D+00
   Bfn.  Coefficient  Atom+Function         Bfn.  Coefficient  Atom+Function  
  ----- ------------  ---------------      ----- ------------  ---------------
    23      0.365807   2 N  py              128     -0.365807   9 N  py        
    83     -0.360471   6 C  py              113      0.360471   8 C  py        
    38     -0.345347   3 C  py              143      0.345347  10 C  py        
    19      0.289212   2 N  py              124     -0.289212   9 N  py        
    79     -0.280558   6 C  py              109      0.280558   8 C  py        

 Vector   52  Occ=0.000000D+00  E= 4.797137D-02  Symmetry=b2
              MO Center=  8.4D-14, -4.8D-17,  1.4D-01, r^2= 9.7D+00
   Bfn.  Coefficient  Atom+Function         Bfn.  Coefficient  Atom+Function  
  ----- ------------  ---------------      ----- ------------  ---------------
    53      0.461591   4 C  py              158      0.461591  11 C  py        
    38     -0.417022   3 C  py              143     -0.417022  10 C  py        
    49      0.295122   4 C  py              154      0.295122  11 C  py        
    34     -0.273110   3 C  py              139     -0.273110  10 C  py        
    68     -0.246666   5 C  py              173     -0.246666  12 C  py        

 Vector   53  Occ=0.000000D+00  E= 6.827481D-02  Symmetry=a2
              MO Center= -6.4D-14, -3.9D-16,  7.1D-01, r^2= 1.0D+01
   Bfn.  Coefficient  Atom+Function         Bfn.  Coefficient  Atom+Function  
  ----- ------------  ---------------      ----- ------------  ---------------
    53      0.478842   4 C  py              158     -0.478842  11 C  py        
    68     -0.442082   5 C  py              173      0.442082  12 C  py        
    38     -0.300624   3 C  py              143      0.300624  10 C  py        
    49      0.288563   4 C  py              154     -0.288563  11 C  py        
    64     -0.273299   5 C  py              169      0.273299  12 C  py        

 Vector   54  Occ=0.000000D+00  E= 9.757088D-02  Symmetry=a1
              MO Center=  2.1D-15, -2.1D-17,  2.5D+00, r^2= 6.6D+00
   Bfn.  Coefficient  Atom+Function         Bfn.  Coefficient  Atom+Function  
  ----- ------------  ---------------      ----- ------------  ---------------
   218      1.673291  18 H  s                99     -1.047366   7 C  pz        
    96     -0.852164   7 C  s               216      0.756750  17 H  s         
   224      0.756750  21 H  s                66     -0.436551   5 C  s         
   171     -0.436551  12 C  s                81     -0.426674   6 C  s         
   111     -0.426674   8 C  s                69     -0.387285   5 C  pz        

 Vector   55  Occ=0.000000D+00  E= 1.136939D-01  Symmetry=b2
              MO Center= -1.9D-14, -1.6D-15,  1.2D+00, r^2= 4.6D+00
   Bfn.  Coefficient  Atom+Function         Bfn.  Coefficient  Atom+Function  
  ----- ------------  ---------------      ----- ------------  ---------------
    98     -0.641138   7 C  py               83      0.589170   6 C  py        
   113      0.589170   8 C  py               68     -0.418808   5 C  py        
   173     -0.418808  12 C  py               79      0.369508   6 C  py        
   109      0.369508   8 C  py               94     -0.312037   7 C  py        
    53      0.196539   4 C  py              158      0.196539  11 C  py        

 Vector   56  Occ=0.000000D+00  E= 1.160531D-01  Symmetry=b1
              MO Center=  7.3D-13, -3.1D-16,  8.9D-01, r^2= 1.7D+01
   Bfn.  Coefficient  Atom+Function         Bfn.  Coefficient  Atom+Function  
  ----- ------------  ---------------      ----- ------------  ---------------
   216      1.026256  17 H  s               224     -1.026256  21 H  s         
   214      0.709059  16 H  s               222     -0.709059  20 H  s         
   212      0.681964  15 H  s               220     -0.681964  19 H  s         
    51     -0.605723   4 C  s               156      0.605723  11 C  s         
    66     -0.599436   5 C  s               171      0.599436  12 C  s         

 Vector   57  Occ=0.000000D+00  E= 1.199162D-01  Symmetry=a1
              MO Center= -7.4D-13,  1.1D-15,  3.7D-01, r^2= 1.6D+01
   Bfn.  Coefficient  Atom+Function         Bfn.  Coefficient  Atom+Function  
  ----- ------------  ---------------      ----- ------------  ---------------
   218      0.976423  18 H  s                51      0.904492   4 C  s         
   156      0.904492  11 C  s               212     -0.878305  15 H  s         
   220     -0.878305  19 H  s               214     -0.766289  16 H  s         
   222     -0.766289  20 H  s                99     -0.588693   7 C  pz        
    36      0.547096   3 C  s               141      0.547096  10 C  s         

 Vector   58  Occ=0.000000D+00  E= 1.536433D-01  Symmetry=a1
              MO Center=  7.6D-13, -3.4D-17, -6.9D-01, r^2= 1.7D+01
   Bfn.  Coefficient  Atom+Function         Bfn.  Coefficient  Atom+Function  
  ----- ------------  ---------------      ----- ------------  ---------------
   214      1.226204  16 H  s               222      1.226204  20 H  s         
   212     -1.039996  15 H  s               220     -1.039996  19 H  s         
    52      0.835613   4 C  px              157     -0.835613  11 C  px        
    51     -0.610941   4 C  s               156     -0.610941  11 C  s         
    39     -0.605206   3 C  pz              144     -0.605206  10 C  pz        

 Vector   59  Occ=0.000000D+00  E= 1.551116D-01  Symmetry=b1
              MO Center= -1.2D-14, -1.3D-16,  2.9D-01, r^2= 1.6D+01
   Bfn.  Coefficient  Atom+Function         Bfn.  Coefficient  Atom+Function  
  ----- ------------  ---------------      ----- ------------  ---------------
   216     -1.121651  17 H  s               224      1.121651  21 H  s         
   212      1.114821  15 H  s               220     -1.114821  19 H  s         
    36     -0.973685   3 C  s               141      0.973685  10 C  s         
    66      0.771646   5 C  s               171     -0.771646  12 C  s         
    69      0.611488   5 C  pz              174     -0.611488  12 C  pz        

 Vector   60  Occ=0.000000D+00  E= 1.586432D-01  Symmetry=b1
              MO Center= -5.1D-15, -1.2D-17,  3.5D-01, r^2= 2.1D+01
   Bfn.  Coefficient  Atom+Function         Bfn.  Coefficient  Atom+Function  
  ----- ------------  ---------------      ----- ------------  ---------------
   214      1.495993  16 H  s               222     -1.495993  20 H  s         
    52      1.053787   4 C  px               81      1.053597   6 C  s         
   111     -1.053597   8 C  s               157      1.053787  11 C  px        
    51     -0.765686   4 C  s               156      0.765686  11 C  s         
   212     -0.721040  15 H  s               220      0.721040  19 H  s         

 Vector   61  Occ=0.000000D+00  E= 1.625158D-01  Symmetry=a1
              MO Center= -7.2D-13,  2.8D-16,  1.7D+00, r^2= 1.4D+01
   Bfn.  Coefficient  Atom+Function         Bfn.  Coefficient  Atom+Function  
  ----- ------------  ---------------      ----- ------------  ---------------
   216      1.356898  17 H  s               224      1.356898  21 H  s         
    66     -0.928930   5 C  s               171     -0.928930  12 C  s         
    69     -0.823243   5 C  pz              174     -0.823243  12 C  pz        
    36      0.623937   3 C  s               141      0.623937  10 C  s         
   212     -0.623430  15 H  s               220     -0.623430  19 H  s         

 Vector   62  Occ=0.000000D+00  E= 1.941064D-01  Symmetry=a1
              MO Center= -1.0D-12, -1.3D-16,  2.6D-01, r^2= 7.6D+00
   Bfn.  Coefficient  Atom+Function         Bfn.  Coefficient  Atom+Function  
[...]
   12 Stretch                  5    17                       1.08227    0.00995
   13 Stretch                  6     7                       1.39159    0.00630
   14 Stretch                  7     8                       1.39159    0.00630
   15 Stretch                  7    18                       1.08601    0.00639
   16 Stretch                  8     9                       1.39476    0.01499
   17 Stretch                  8    12                       1.41981    0.00333
   18 Stretch                  9    10                       1.33968    0.01342
   19 Stretch                 10    11                       1.41287    0.01034
   20 Stretch                 10    19                       1.08200    0.00874
   21 Stretch                 11    12                       1.38767    0.01187
   22 Stretch                 11    20                       1.08121    0.00930
   23 Stretch                 12    21                       1.08227    0.00995
   24 Bend                     1     2     3               126.40255   -0.52946
   25 Bend                     1     2     6               125.92658    1.12853
   26 Bend                     1     9     8               125.92658    1.12853
   27 Bend                     1     9    10               126.40255   -0.52946
   28 Bend                     2     1     9               105.27735   -1.72802
   29 Bend                     2     1    13               109.88633    0.01516
   30 Bend                     2     1    14               109.88633    0.01516
   31 Bend                     2     3     4               110.46474    0.28317
   32 Bend                     2     3    15               120.50688   -0.33037
   33 Bend                     2     6     5               108.20535    0.36578
   34 Bend                     2     6     7               120.44825   -0.77976
   35 Bend                     3     2     6               107.67087   -0.59907
   36 Bend                     3     4     5               106.64860   -0.20085
   37 Bend                     3     4    16               125.69981    0.07715
   38 Bend                     4     3    15               129.02837    0.04720
   39 Bend                     4     5     6               107.01043    0.15097
   40 Bend                     4     5    17               127.71540   -0.17177
   41 Bend                     5     4    16               127.65159    0.12370
   42 Bend                     5     6     7               131.34640    0.41398
   43 Bend                     6     5    17               125.27417    0.02080
   44 Bend                     6     7     8               121.97300    1.03047
   45 Bend                     6     7    18               119.01350   -0.51524
   46 Bend                     7     8     9               120.44825   -0.77976
   47 Bend                     7     8    12               131.34640    0.41398
   48 Bend                     8     7    18               119.01350   -0.51524
   49 Bend                     8     9    10               107.67087   -0.59907
   50 Bend                     8    12    11               107.01043    0.15097
   51 Bend                     8    12    21               125.27417    0.02080
   52 Bend                     9     1    13               109.88633    0.01516
   53 Bend                     9     1    14               109.88633    0.01516
   54 Bend                     9     8    12               108.20535    0.36578
   55 Bend                     9    10    11               110.46474    0.28317
   56 Bend                     9    10    19               120.50688   -0.33037
   57 Bend                    10    11    12               106.64860   -0.20085
   58 Bend                    10    11    20               125.69981    0.07715
   59 Bend                    11    10    19               129.02837    0.04720
   60 Bend                    11    12    21               127.71540   -0.17177
   61 Bend                    12    11    20               127.65159    0.12370
   62 Bend                    13     1    14               111.81431    1.52096
   63 Torsion                  1     2     3     4         180.00000    0.00000
   64 Torsion                  1     2     3    15           0.00000    0.00000
   65 Torsion                  1     2     6     5         180.00000    0.00000
   66 Torsion                  1     2     6     7           0.00000    0.00000
   67 Torsion                  1     9     8     7           0.00000    0.00000
   68 Torsion                  1     9     8    12         180.00000    0.00000
   69 Torsion                  1     9    10    11         180.00000    0.00000
   70 Torsion                  1     9    10    19           0.00000    0.00000
   71 Torsion                  2     1     9     8           0.00000    0.00000
   72 Torsion                  2     1     9    10         180.00000    0.00000
   73 Torsion                  2     3     4     5           0.00000    0.00000
   74 Torsion                  2     3     4    16         180.00000    0.00000
   75 Torsion                  2     6     5     4          -0.00000    0.00000
   76 Torsion                  2     6     5    17         180.00000    0.00000
   77 Torsion                  2     6     7     8           0.00000    0.00000
   78 Torsion                  2     6     7    18         180.00000    0.00000
   79 Torsion                  3     2     1     9         180.00000    0.00000
   80 Torsion                  3     2     1    13          61.72011    0.96129
   81 Torsion                  3     2     1    14         -61.72011   -0.96129
   82 Torsion                  3     2     6     5           0.00000    0.00000
   83 Torsion                  3     2     6     7         180.00000    0.00000
   84 Torsion                  3     4     5     6           0.00000    0.00000
   85 Torsion                  3     4     5    17         180.00000    0.00000
   86 Torsion                  4     3     2     6           0.00000    0.00000
   87 Torsion                  4     5     6     7         180.00000    0.00000
   88 Torsion                  5     4     3    15         180.00000    0.00000
   89 Torsion                  5     6     7     8         180.00000    0.00000
   90 Torsion                  5     6     7    18           0.00000    0.00000
   91 Torsion                  6     2     1     9          -0.00000    0.00000
   92 Torsion                  6     2     1    13        -118.27989    0.96129
   93 Torsion                  6     2     1    14         118.27989   -0.96129
   94 Torsion                  6     2     3    15         180.00000    0.00000
   95 Torsion                  6     5     4    16         180.00000    0.00000
   96 Torsion                  6     7     8     9           0.00000    0.00000
   97 Torsion                  6     7     8    12         180.00000    0.00000
   98 Torsion                  7     6     5    17           0.00000    0.00000
   99 Torsion                  7     8     9    10         180.00000    0.00000
  100 Torsion                  7     8    12    11         180.00000    0.00000
  101 Torsion                  7     8    12    21           0.00000    0.00000
  102 Torsion                  8     9     1    13         118.27989   -0.96129
  103 Torsion                  8     9     1    14        -118.27989    0.96129
  104 Torsion                  8     9    10    11           0.00000    0.00000
  105 Torsion                  8     9    10    19         180.00000    0.00000
  106 Torsion                  8    12    11    10           0.00000    0.00000
  107 Torsion                  8    12    11    20         180.00000    0.00000
  108 Torsion                  9     8     7    18         180.00000    0.00000
  109 Torsion                  9     8    12    11           0.00000    0.00000
  110 Torsion                  9     8    12    21         180.00000    0.00000
  111 Torsion                  9    10    11    12           0.00000    0.00000
  112 Torsion                  9    10    11    20         180.00000    0.00000
  113 Torsion                 10     9     1    13         -61.72011   -0.96129
  114 Torsion                 10     9     1    14          61.72011    0.96129
  115 Torsion                 10     9     8    12           0.00000    0.00000
  116 Torsion                 10    11    12    21         180.00000    0.00000
  117 Torsion                 12     8     7    18           0.00000    0.00000
  118 Torsion                 12    11    10    19         180.00000    0.00000
  119 Torsion                 15     3     4    16          -0.00000    0.00000
  120 Torsion                 16     4     5    17           0.00000    0.00000
  121 Torsion                 19    10    11    20           0.00000    0.00000
  122 Torsion                 20    11    12    21           0.00000    0.00000

 ==============================================================================
                                internuclear distances
 ------------------------------------------------------------------------------
       center one      |      center two      | atomic units |  angstroms
 ------------------------------------------------------------------------------
    2 N                |   1 B                |     2.97638  |     1.57503
    3 C                |   2 N                |     2.53162  |     1.33968
    4 C                |   3 C                |     2.66994  |     1.41287
    5 C                |   4 C                |     2.62231  |     1.38767
    6 C                |   2 N                |     2.63571  |     1.39476
    6 C                |   5 C                |     2.68306  |     1.41981
    7 C                |   6 C                |     2.62972  |     1.39159
    8 C                |   7 C                |     2.62972  |     1.39159
    9 N                |   1 B                |     2.97638  |     1.57503
    9 N                |   8 C                |     2.63571  |     1.39476
   10 C                |   9 N                |     2.53162  |     1.33968
   11 C                |  10 C                |     2.66994  |     1.41287
   12 C                |   8 C                |     2.68306  |     1.41981
   12 C                |  11 C                |     2.62231  |     1.38767
   13 F                |   1 B                |     2.60892  |     1.38058
   14 F                |   1 B                |     2.60892  |     1.38058
   15 H                |   3 C                |     2.04469  |     1.08200
   16 H                |   4 C                |     2.04318  |     1.08121
   17 H                |   5 C                |     2.04519  |     1.08227
   18 H                |   7 C                |     2.05225  |     1.08601
   19 H                |  10 C                |     2.04469  |     1.08200
   20 H                |  11 C                |     2.04318  |     1.08121
   21 H                |  12 C                |     2.04519  |     1.08227
 ------------------------------------------------------------------------------
                         number of included internuclear distances:         23
 ==============================================================================



 ==============================================================================
                                 internuclear angles
 ------------------------------------------------------------------------------
        center 1       |       center 2       |       center 3       |  degrees
 ------------------------------------------------------------------------------
    2 N                |   1 B                |   9 N                |   105.28
    2 N                |   1 B                |  13 F                |   109.89
    2 N                |   1 B                |  14 F                |   109.89
    9 N                |   1 B                |  13 F                |   109.89
    9 N                |   1 B                |  14 F                |   109.89
   13 F                |   1 B                |  14 F                |   111.81
    1 B                |   2 N                |   3 C                |   126.40
    1 B                |   2 N                |   6 C                |   125.93
    3 C                |   2 N                |   6 C                |   107.67
    2 N                |   3 C                |   4 C                |   110.46
    2 N                |   3 C                |  15 H                |   120.51
    4 C                |   3 C                |  15 H                |   129.03
    3 C                |   4 C                |   5 C                |   106.65
    3 C                |   4 C                |  16 H                |   125.70
    5 C                |   4 C                |  16 H                |   127.65
    4 C                |   5 C                |   6 C                |   107.01
    4 C                |   5 C                |  17 H                |   127.72
    6 C                |   5 C                |  17 H                |   125.27
    2 N                |   6 C                |   5 C                |   108.21
    2 N                |   6 C                |   7 C                |   120.45
    5 C                |   6 C                |   7 C                |   131.35
    6 C                |   7 C                |   8 C                |   121.97
    6 C                |   7 C                |  18 H                |   119.01
    8 C                |   7 C                |  18 H                |   119.01
    7 C                |   8 C                |   9 N                |   120.45
    7 C                |   8 C                |  12 C                |   131.35
    9 N                |   8 C                |  12 C                |   108.21
    1 B                |   9 N                |   8 C                |   125.93
    1 B                |   9 N                |  10 C                |   126.40
    8 C                |   9 N                |  10 C                |   107.67
    9 N                |  10 C                |  11 C                |   110.46
    9 N                |  10 C                |  19 H                |   120.51
   11 C                |  10 C                |  19 H                |   129.03
   10 C                |  11 C                |  12 C                |   106.65
   10 C                |  11 C                |  20 H                |   125.70
   12 C                |  11 C                |  20 H                |   127.65
    8 C                |  12 C                |  11 C                |   107.01
    8 C                |  12 C                |  21 H                |   125.27
   11 C                |  12 C                |  21 H                |   127.72
 ------------------------------------------------------------------------------
                            number of included internuclear angles:         39
 ==============================================================================




 Task  times  cpu:      280.4s     wall:      274.1s
 Summary of allocated global arrays
-----------------------------------
  No active global arrays



                         GA Statistics for process    0
                         ------------------------------

       create   destroy   get      put      acc     scatter   gather  read&inc
calls: 1303     1260     2.25e+06 1.37e+05 8.18e+05    0        0     6.82e+04 
number of processes/call 0.00e+00 0.00e+00 0.00e+00 0.00e+00 0.00e+00
bytes total:             2.60e+09 4.77e+08 1.07e+09 0.00e+00 0.00e+00 5.46e+05
bytes remote:            0.00e+00 0.00e+00 0.00e+00 0.00e+00 0.00e+00 0.00e+00
Max memory consumed for GA by this process: 15654912 bytes
MA_summarize_allocated_blocks: starting scan ...
MA_summarize_allocated_blocks: scan completed: 0 heap blocks, 0 stack blocks
MA usage statistics:

	allocation statistics:
					      heap	     stack
					      ----	     -----
	current number of blocks	         0	         0
	maximum number of blocks	        25	        57
	current total bytes		         0	         0
	maximum total bytes		   9897224	  35334088
	maximum total K-bytes		      9898	     35335
	maximum total M-bytes		        10	        36


                                NWChem Input Module
                                -------------------





                                     CITATION
                                     --------
                Please cite the following reference when publishing
                           results obtained with NWChem:

          E. Apr, E. J. Bylaska, W. A. de Jong, N. Govind, K. Kowalski,
       T. P. Straatsma, M. Valiev, H. J. J. van Dam, Y. Alexeev, J. Anchell,
       V. Anisimov, F. W. Aquino, R. Atta-Fynn, J. Autschbach, N. P. Bauman,
     J. C. Becca, D. E. Bernholdt, K. Bhaskaran-Nair, S. Bogatko, P. Borowski,
        J. Boschen, J. Brabec, A. Bruner, E. Caut, Y. Chen, G. N. Chuev,
      C. J. Cramer, J. Daily, M. J. O. Deegan, T. H. Dunning Jr., M. Dupuis,
   K. G. Dyall, G. I. Fann, S. A. Fischer, A. Fonari, H. Frchtl, L. Gagliardi,
      J. Garza, N. Gawande, S. Ghosh, K. Glaesemann, A. W. Gtz, J. Hammond,
       V. Helms, E. D. Hermes, K. Hirao, S. Hirata, M. Jacquelin, L. Jensen,
   B. G. Johnson, H. Jnsson, R. A. Kendall, M. Klemm, R. Kobayashi, V. Konkov,
      S. Krishnamoorthy, M. Krishnan, Z. Lin, R. D. Lins, R. J. Littlefield,
      A. J. Logsdail, K. Lopata, W. Ma, A. V. Marenich, J. Martin del Campo,
   D. Mejia-Rodriguez, J. E. Moore, J. M. Mullin, T. Nakajima, D. R. Nascimento,
    J. A. Nichols, P. J. Nichols, J. Nieplocha, A. Otero-de-la-Roza, B. Palmer,
    A. Panyala, T. Pirojsirikul, B. Peng, R. Peverati, J. Pittner, L. Pollack,
   R. M. Richard, P. Sadayappan, G. C. Schatz, W. A. Shelton, D. W. Silverstein,
   D. M. A. Smith, T. A. Soares, D. Song, M. Swart, H. L. Taylor, G. S. Thomas,
            V. Tipparaju, D. G. Truhlar, K. Tsemekhman, T. Van Voorhis,
     . Vzquez-Mayagoitia, P. Verma, O. Villa, A. Vishnu, K. D. Vogiatzis,
        D. Wang, J. H. Weare, M. J. Williamson, T. L. Windus, K. Woliski,
        A. T. Wong, Q. Wu, C. Yang, Q. Yu, M. Zacharias, Z. Zhang, Y. Zhao,
                                and R. J. Harrison
                        "NWChem: Past, present, and future
                         J. Chem. Phys. 152, 184102 (2020)
                               doi:10.1063/5.0004997

                                      AUTHORS
                                      -------
     E. Apra, E. J. Bylaska, N. Govind, K. Kowalski, M. Valiev, W. A. de Jong,
      T. P. Straatsma, H. J. J. van Dam, D. Wang, T. L. Windus, N. P. Bauman,
       A. Panyala, J. Hammond, J. Autschbach, K. Bhaskaran-Nair, J. Brabec,
    K. Lopata, S. A. Fischer, S. Krishnamoorthy, M. Jacquelin, W. Ma, M. Klemm,
       O. Villa, Y. Chen, V. Anisimov, F. Aquino, S. Hirata, M. T. Hackler,
           Eric Hermes, L. Jensen, J. E. Moore, J. C. Becca, V. Konjkov,
            D. Mejia-Rodriguez, T. Risthaus, M. Malagoli, A. Marenich,
   A. Otero-de-la-Roza, J. Mullin, P. Nichols, R. Peverati, J. Pittner, Y. Zhao,
        P.-D. Fan, A. Fonari, M. J. Williamson, R. J. Harrison, J. R. Rehr,
      M. Dupuis, D. Silverstein, D. M. A. Smith, J. Nieplocha, V. Tipparaju,
      M. Krishnan, B. E. Van Kuiken, A. Vazquez-Mayagoitia, M. Swart, Q. Wu,
   T. Van Voorhis, A. A. Auer, M. Nooijen, L. D. Crosby, E. Brown, G. Cisneros,
     G. I. Fann, H. Fruchtl, J. Garza, K. Hirao, R. A. Kendall, J. A. Nichols,
       K. Tsemekhman, K. Wolinski, J. Anchell, D. E. Bernholdt, P. Borowski,
       T. Clark, D. Clerc, H. Dachsel, M. J. O. Deegan, K. Dyall, D. Elwood,
      E. Glendening, M. Gutowski, A. C. Hess, J. Jaffe, B. G. Johnson, J. Ju,
        R. Kobayashi, R. Kutteh, Z. Lin, R. Littlefield, X. Long, B. Meng,
      T. Nakajima, S. Niu, L. Pollack, M. Rosing, K. Glaesemann, G. Sandrone,
      M. Stave, H. Taylor, G. Thomas, J. H. van Lenthe, A. T. Wong, Z. Zhang.

 Total times  cpu:      280.5s     wall:      274.2s
