 argument  1 = BODIPY30.nw
                                         
                                         


             Northwest Computational Chemistry Package (NWChem) 7.0.2
             --------------------------------------------------------


                    Environmental Molecular Sciences Laboratory
                       Pacific Northwest National Laboratory
                                Richland, WA 99352

                              Copyright (c) 1994-2020
                       Pacific Northwest National Laboratory
                            Battelle Memorial Institute

             NWChem is an open-source computational chemistry package
                        distributed under the terms of the
                      Educational Community License (ECL) 2.0
             A copy of the license is included with this distribution
                              in the LICENSE.TXT file

                                  ACKNOWLEDGMENT
                                  --------------

            This software and its documentation were developed at the
            EMSL at Pacific Northwest National Laboratory, a multiprogram
            national laboratory, operated for the U.S. Department of Energy
            by Battelle under Contract Number DE-AC05-76RL01830. Support
            for this work was provided by the Department of Energy Office
            of Biological and Environmental Research, Office of Basic
            Energy Sciences, and the Office of Advanced Scientific Computing.


           Job information
           ---------------

    hostname        = taamangtchu-Aspire-A515-45
    program         = nwchem
    date            = Tue Jul  2 08:22:57 2024

    compiled        = Sat_Apr_09_17:12:10_2022
    source          = /build/nwchem-f1f4gx/nwchem-7.0.2/build-openmpi
    nwchem branch   = 7.0.2
    nwchem revision = N/A
    ga revision     = 5.8.1
    use scalapack   = T
    input           = BODIPY30.nw
    prefix          = BODIPY.
    data base       = ./BODIPY.db
    status          = startup
    nproc           =        1
    time left       =     -1s



           Memory information
           ------------------

    heap     =   13107194 doubles =    100.0 Mbytes
    stack    =   13107199 doubles =    100.0 Mbytes
    global   =   26214400 doubles =    200.0 Mbytes (distinct from heap & stack)
    total    =   52428793 doubles =    400.0 Mbytes
    verify   = yes
    hardfail = no 


           Directory information
           ---------------------

  0 permanent = .
  0 scratch   = .




                                NWChem Input Module
                                -------------------


                         OLED TADF Properties Calculation
                         --------------------------------

 Scaling coordinates for geometry "geometry" by  1.889725989
 (inverse scale =  0.529177249)

 C2V symmetry detected

          ------
          auto-z
          ------
  no constraints, skipping    0.0000000000000000     
  no constraints, skipping    0.0000000000000000     


                             Geometry "geometry" -> ""
                             -------------------------

 Output coordinates in angstroms (scale by  1.889725989 to convert to a.u.)

  No.       Tag          Charge          X              Y              Z
 ---- ---------------- ---------- -------------- -------------- --------------
    1 B                    5.0000     0.00000000     0.00000000    -1.20497613
    2 N                    7.0000    -1.24626844     0.00000000    -0.28286786
    3 C                    6.0000    -2.51744577     0.00000000    -0.66111573
    4 C                    6.0000    -3.35664520     0.00000000     0.46264423
    5 C                    6.0000    -2.54025760     0.00000000     1.57003212
    6 C                    6.0000    -1.20534094     0.00000000     1.09629644
    7 C                    6.0000     0.00000000     0.00000000     1.77905966
    8 C                    6.0000     1.20534094     0.00000000     1.09629644
    9 N                    7.0000     1.24626844     0.00000000    -0.28286786
   10 C                    6.0000     2.51744577     0.00000000    -0.66111573
   11 C                    6.0000     3.35664520     0.00000000     0.46264423
   12 C                    6.0000     2.54025760     0.00000000     1.57003212
   13 F                    9.0000     0.00000000     1.12949751    -1.99151791
   14 F                    9.0000     0.00000000    -1.12949751    -1.99151791
   15 H                    1.0000    -2.78195252     0.00000000    -1.70126847
   16 H                    1.0000    -4.42834727     0.00000000     0.44151755
   17 H                    1.0000    -2.83067448     0.00000000     2.60227169
   18 H                    1.0000     0.00000000     0.00000000     2.85866882
   19 H                    1.0000     2.78195252     0.00000000    -1.70126847
   20 H                    1.0000     4.42834727     0.00000000     0.44151755
   21 H                    1.0000     2.83067448     0.00000000     2.60227169

      Atomic Mass 
      ----------- 

      B                 11.009310
      N                 14.003070
      C                 12.000000
      F                 18.998400
      H                  1.007825


 Effective nuclear repulsion energy (a.u.)     866.7103892197

            Nuclear Dipole moment (a.u.) 
            ----------------------------
        X                 Y               Z
 ---------------- ---------------- ----------------
    -0.0000000000     0.0000000000    -0.0000000000

      Symmetry information
      --------------------

 Group name             C2v       
 Group number             16
 Group order               4
 No. of unique centers    12

      Symmetry unique atoms

     1    2    3    4    5    6    7   13   15   16   17   18



                                Z-matrix (autoz)
                                -------- 

 Units are Angstrom for bonds and degrees for angles

      Type          Name      I     J     K     L     M      Value
      ----------- --------  ----- ----- ----- ----- ----- ----------
    1 Stretch                  1     2                       1.55031
    2 Stretch                  1     9                       1.55031
    3 Stretch                  1    13                       1.37638
    4 Stretch                  1    14                       1.37638
    5 Stretch                  2     3                       1.32626
    6 Stretch                  2     6                       1.37977
    7 Stretch                  3     4                       1.40253
    8 Stretch                  3    15                       1.07326
    9 Stretch                  4     5                       1.37579
   10 Stretch                  4    16                       1.07191
   11 Stretch                  5     6                       1.41648
   12 Stretch                  5    17                       1.07232
   13 Stretch                  6     7                       1.38528
   14 Stretch                  7     8                       1.38528
   15 Stretch                  7    18                       1.07961
   16 Stretch                  8     9                       1.37977
   17 Stretch                  8    12                       1.41648
   18 Stretch                  9    10                       1.32626
   19 Stretch                 10    11                       1.40253
   20 Stretch                 10    19                       1.07326
   21 Stretch                 11    12                       1.37579
   22 Stretch                 11    20                       1.07191
   23 Stretch                 12    21                       1.07232
   24 Bend                     1     2     3               126.93168
   25 Bend                     1     2     6               124.79778
   26 Bend                     1     9     8               124.79778
   27 Bend                     1     9    10               126.93168
   28 Bend                     2     1     9               107.00486
   29 Bend                     2     1    13               109.87059
   30 Bend                     2     1    14               109.87059
   31 Bend                     2     3     4               110.18082
   32 Bend                     2     3    15               120.83842
   33 Bend                     2     6     5               107.83899
   34 Bend                     2     6     7               121.22909
   35 Bend                     3     2     6               108.27054
   36 Bend                     3     4     5               106.85008
   37 Bend                     3     4    16               125.62224
   38 Bend                     4     3    15               128.98075
   39 Bend                     4     5     6               106.85958
   40 Bend                     4     5    17               127.88789
   41 Bend                     5     4    16               127.52769
   42 Bend                     5     6     7               130.93192
   43 Bend                     6     5    17               125.25253
   44 Bend                     6     7     8               120.94139
   45 Bend                     6     7    18               119.52931
   46 Bend                     7     8     9               121.22909
   47 Bend                     7     8    12               130.93192
   48 Bend                     8     7    18               119.52931
   49 Bend                     8     9    10               108.27054
   50 Bend                     8    12    11               106.85958
   51 Bend                     8    12    21               125.25253
   52 Bend                     9     1    13               109.87059
   53 Bend                     9     1    14               109.87059
   54 Bend                     9     8    12               107.83899
   55 Bend                     9    10    11               110.18082
   56 Bend                     9    10    19               120.83842
   57 Bend                    10    11    12               106.85008
   58 Bend                    10    11    20               125.62224
   59 Bend                    11    10    19               128.98075
   60 Bend                    11    12    21               127.88789
   61 Bend                    12    11    20               127.52769
   62 Bend                    13     1    14               110.29605
   63 Torsion                  1     2     3     4         180.00000
   64 Torsion                  1     2     3    15           0.00000
   65 Torsion                  1     2     6     5         180.00000
   66 Torsion                  1     2     6     7           0.00000
   67 Torsion                  1     9     8     7           0.00000
   68 Torsion                  1     9     8    12         180.00000
   69 Torsion                  1     9    10    11         180.00000
   70 Torsion                  1     9    10    19           0.00000
   71 Torsion                  2     1     9     8           0.00000
   72 Torsion                  2     1     9    10         180.00000
   73 Torsion                  2     3     4     5           0.00000
   74 Torsion                  2     3     4    16         180.00000
   75 Torsion                  2     6     5     4          -0.00000
   76 Torsion                  2     6     5    17         180.00000
   77 Torsion                  2     6     7     8           0.00000
   78 Torsion                  2     6     7    18         180.00000
   79 Torsion                  3     2     1     9         180.00000
   80 Torsion                  3     2     1    13          60.76012
   81 Torsion                  3     2     1    14         -60.76012
   82 Torsion                  3     2     6     5           0.00000
   83 Torsion                  3     2     6     7         180.00000
   84 Torsion                  3     4     5     6           0.00000
   85 Torsion                  3     4     5    17         180.00000
   86 Torsion                  4     3     2     6           0.00000
   87 Torsion                  4     5     6     7         180.00000
   88 Torsion                  5     4     3    15         180.00000
   89 Torsion                  5     6     7     8         180.00000
   90 Torsion                  5     6     7    18           0.00000
   91 Torsion                  6     2     1     9          -0.00000
   92 Torsion                  6     2     1    13        -119.23988
   93 Torsion                  6     2     1    14         119.23988
   94 Torsion                  6     2     3    15         180.00000
   95 Torsion                  6     5     4    16         180.00000
   96 Torsion                  6     7     8     9           0.00000
   97 Torsion                  6     7     8    12         180.00000
   98 Torsion                  7     6     5    17           0.00000
   99 Torsion                  7     8     9    10         180.00000
  100 Torsion                  7     8    12    11         180.00000
  101 Torsion                  7     8    12    21           0.00000
  102 Torsion                  8     9     1    13         119.23988
  103 Torsion                  8     9     1    14        -119.23988
  104 Torsion                  8     9    10    11           0.00000
  105 Torsion                  8     9    10    19         180.00000
  106 Torsion                  8    12    11    10           0.00000
  107 Torsion                  8    12    11    20         180.00000
  108 Torsion                  9     8     7    18         180.00000
  109 Torsion                  9     8    12    11           0.00000
  110 Torsion                  9     8    12    21         180.00000
  111 Torsion                  9    10    11    12           0.00000
  112 Torsion                  9    10    11    20         180.00000
  113 Torsion                 10     9     1    13         -60.76012
  114 Torsion                 10     9     1    14          60.76012
  115 Torsion                 10     9     8    12           0.00000
  116 Torsion                 10    11    12    21         180.00000
  117 Torsion                 12     8     7    18           0.00000
  118 Torsion                 12    11    10    19         180.00000
  119 Torsion                 15     3     4    16          -0.00000
  120 Torsion                 16     4     5    17           0.00000
  121 Torsion                 19    10    11    20           0.00000
  122 Torsion                 20    11    12    21           0.00000


            XYZ format geometry
            -------------------
    21
 geometry
 B                     0.00000000     0.00000000    -1.20497613
 N                    -1.24626844     0.00000000    -0.28286786
 C                    -2.51744577     0.00000000    -0.66111573
 C                    -3.35664520     0.00000000     0.46264423
 C                    -2.54025760     0.00000000     1.57003212
 C                    -1.20534094     0.00000000     1.09629644
 C                     0.00000000     0.00000000     1.77905966
 C                     1.20534094     0.00000000     1.09629644
 N                     1.24626844     0.00000000    -0.28286786
 C                     2.51744577     0.00000000    -0.66111573
 C                     3.35664520     0.00000000     0.46264423
 C                     2.54025760     0.00000000     1.57003212
 F                     0.00000000     1.12949751    -1.99151791
 F                     0.00000000    -1.12949751    -1.99151791
 H                    -2.78195252     0.00000000    -1.70126847
 H                    -4.42834727     0.00000000     0.44151755
 H                    -2.83067448     0.00000000     2.60227169
 H                     0.00000000     0.00000000     2.85866882
 H                     2.78195252     0.00000000    -1.70126847
 H                     4.42834727     0.00000000     0.44151755
 H                     2.83067448     0.00000000     2.60227169

 ==============================================================================
                                internuclear distances
 ------------------------------------------------------------------------------
       center one      |      center two      | atomic units |  angstroms
 ------------------------------------------------------------------------------
    2 N                |   1 B                |     2.92967  |     1.55031
    3 C                |   2 N                |     2.50627  |     1.32626
    4 C                |   3 C                |     2.65040  |     1.40253
    5 C                |   4 C                |     2.59987  |     1.37579
    6 C                |   2 N                |     2.60739  |     1.37977
    6 C                |   5 C                |     2.67677  |     1.41648
    7 C                |   6 C                |     2.61781  |     1.38528
    8 C                |   7 C                |     2.61781  |     1.38528
    9 N                |   1 B                |     2.92967  |     1.55031
    9 N                |   8 C                |     2.60739  |     1.37977
   10 C                |   9 N                |     2.50627  |     1.32626
   11 C                |  10 C                |     2.65040  |     1.40253
   12 C                |   8 C                |     2.67677  |     1.41648
   12 C                |  11 C                |     2.59987  |     1.37579
   13 F                |   1 B                |     2.60097  |     1.37638
   14 F                |   1 B                |     2.60097  |     1.37638
   15 H                |   3 C                |     2.02816  |     1.07326
   16 H                |   4 C                |     2.02562  |     1.07191
   17 H                |   5 C                |     2.02638  |     1.07232
   18 H                |   7 C                |     2.04017  |     1.07961
   19 H                |  10 C                |     2.02816  |     1.07326
   20 H                |  11 C                |     2.02562  |     1.07191
   21 H                |  12 C                |     2.02638  |     1.07232
 ------------------------------------------------------------------------------
                         number of included internuclear distances:         23
 ==============================================================================



 ==============================================================================
                                 internuclear angles
 ------------------------------------------------------------------------------
        center 1       |       center 2       |       center 3       |  degrees
 ------------------------------------------------------------------------------
    2 N                |   1 B                |   9 N                |   107.00
    2 N                |   1 B                |  13 F                |   109.87
    2 N                |   1 B                |  14 F                |   109.87
    9 N                |   1 B                |  13 F                |   109.87
    9 N                |   1 B                |  14 F                |   109.87
   13 F                |   1 B                |  14 F                |   110.30
    1 B                |   2 N                |   3 C                |   126.93
    1 B                |   2 N                |   6 C                |   124.80
    3 C                |   2 N                |   6 C                |   108.27
    2 N                |   3 C                |   4 C                |   110.18
    2 N                |   3 C                |  15 H                |   120.84
    4 C                |   3 C                |  15 H                |   128.98
    3 C                |   4 C                |   5 C                |   106.85
    3 C                |   4 C                |  16 H                |   125.62
    5 C                |   4 C                |  16 H                |   127.53
    4 C                |   5 C                |   6 C                |   106.86
    4 C                |   5 C                |  17 H                |   127.89
    6 C                |   5 C                |  17 H                |   125.25
    2 N                |   6 C                |   5 C                |   107.84
    2 N                |   6 C                |   7 C                |   121.23
    5 C                |   6 C                |   7 C                |   130.93
    6 C                |   7 C                |   8 C                |   120.94
    6 C                |   7 C                |  18 H                |   119.53
    8 C                |   7 C                |  18 H                |   119.53
    7 C                |   8 C                |   9 N                |   121.23
    7 C                |   8 C                |  12 C                |   130.93
    9 N                |   8 C                |  12 C                |   107.84
    1 B                |   9 N                |   8 C                |   124.80
    1 B                |   9 N                |  10 C                |   126.93
    8 C                |   9 N                |  10 C                |   108.27
    9 N                |  10 C                |  11 C                |   110.18
    9 N                |  10 C                |  19 H                |   120.84
   11 C                |  10 C                |  19 H                |   128.98
   10 C                |  11 C                |  12 C                |   106.85
   10 C                |  11 C                |  20 H                |   125.62
   12 C                |  11 C                |  20 H                |   127.53
    8 C                |  12 C                |  11 C                |   106.86
    8 C                |  12 C                |  21 H                |   125.25
   11 C                |  12 C                |  21 H                |   127.89
 ------------------------------------------------------------------------------
                            number of included internuclear angles:         39
 ==============================================================================





 Summary of "ao basis" -> "" (spherical)
 ------------------------------------------------------------------------------
       Tag                 Description            Shells   Functions and Types
 ---------------- ------------------------------  ------  ---------------------
 *                          def2-svp                  on all atoms 




                           NWChem Geometry Optimization
                           ----------------------------




                         OLED TADF Properties Calculation


  no constraints, skipping    0.0000000000000000     
 maximum gradient threshold         (gmax) =   0.000450
 rms gradient threshold             (grms) =   0.000300
 maximum cartesian step threshold   (xmax) =   0.001800
 rms cartesian step threshold       (xrms) =   0.001200
 fixed trust radius                (trust) =   0.300000
 maximum step size to saddle      (sadstp) =   0.100000
 energy precision                  (eprec) =   5.0D-06
 maximum number of steps          (nptopt) =  100
 initial hessian option           (inhess) =    0
 line search option               (linopt) =    1
 hessian update option            (modupd) =    1
 saddle point option              (modsad) =    0
 initial eigen-mode to follow     (moddir) =    0
 initial variable to follow       (vardir) =    0
 follow first negative mode     (firstneg) =    T
 apply conjugacy                    (opcg) =    F
 source of zmatrix                         =   autoz   


          -------------------
          Energy Minimization
          -------------------


 Names of Z-matrix variables 
    1              2              3              4              5         
    6              7              8              9             10         
   11             12             13             14             15         
   16             17             18             19             20         
   21             22             23             24             25         
   26             27             28             29             30         
   31             32             33             34             35         
   36             37             38             39             40         
   41             42             43             44             45         
   46             47             48             49             50         
   51             52             53             54             55         
   56             57             58             59             60         
   61             62             63             64             65         
   66             67             68             69             70         
   71             72             73             74             75         
   76             77             78             79             80         
   81             82             83             84             85         
   86             87             88             89             90         
   91             92             93             94             95         
   96             97             98             99            100         
  101            102            103            104            105         
  106            107            108            109            110         
  111            112            113            114            115         
  116            117            118            119            120         
  121            122         

 Variables with the same non-blank name are constrained to be equal


 Using old Hessian from previous optimization

          --------
          Step   0
          --------


                         Geometry "geometry" -> "geometry"
                         ---------------------------------

 Output coordinates in angstroms (scale by  1.889725989 to convert to a.u.)

  No.       Tag          Charge          X              Y              Z
 ---- ---------------- ---------- -------------- -------------- --------------
    1 B                    5.0000     0.00000000     0.00000000    -1.20497613
    2 N                    7.0000    -1.24626844     0.00000000    -0.28286786
    3 C                    6.0000    -2.51744577     0.00000000    -0.66111573
    4 C                    6.0000    -3.35664520     0.00000000     0.46264423
    5 C                    6.0000    -2.54025760     0.00000000     1.57003212
    6 C                    6.0000    -1.20534094     0.00000000     1.09629644
    7 C                    6.0000     0.00000000     0.00000000     1.77905966
    8 C                    6.0000     1.20534094     0.00000000     1.09629644
    9 N                    7.0000     1.24626844     0.00000000    -0.28286786
   10 C                    6.0000     2.51744577     0.00000000    -0.66111573
   11 C                    6.0000     3.35664520     0.00000000     0.46264423
   12 C                    6.0000     2.54025760     0.00000000     1.57003212
   13 F                    9.0000     0.00000000     1.12949751    -1.99151791
   14 F                    9.0000     0.00000000    -1.12949751    -1.99151791
   15 H                    1.0000    -2.78195252     0.00000000    -1.70126847
   16 H                    1.0000    -4.42834727     0.00000000     0.44151755
   17 H                    1.0000    -2.83067448     0.00000000     2.60227169
   18 H                    1.0000     0.00000000     0.00000000     2.85866882
   19 H                    1.0000     2.78195252     0.00000000    -1.70126847
   20 H                    1.0000     4.42834727     0.00000000     0.44151755
   21 H                    1.0000     2.83067448     0.00000000     2.60227169

      Atomic Mass 
      ----------- 

      B                 11.009310
      N                 14.003070
      C                 12.000000
      F                 18.998400
      H                  1.007825


 Effective nuclear repulsion energy (a.u.)     866.7103892197

            Nuclear Dipole moment (a.u.) 
            ----------------------------
        X                 Y               Z
 ---------------- ---------------- ----------------
    -0.0000000000     0.0000000000    -0.0000000000

      Symmetry information
      --------------------

 Group name             C2v       
 Group number             16
 Group order               4
 No. of unique centers    12

      Symmetry unique atoms

     1    2    3    4    5    6    7   13   15   16   17   18


                                 NWChem DFT Module
                                 -----------------


                         OLED TADF Properties Calculation


                      Basis "ao basis" -> "ao basis" (spherical)
                      -----
  B (Boron)
  ---------
            Exponent  Coefficients 
       -------------- ---------------------------------------------------------
  1 S  8.39318301E+02 -0.005593
  1 S  1.26264648E+02 -0.041566
  1 S  2.86206008E+01 -0.182998
  1 S  7.87937227E+00 -0.465404
  1 S  2.40888572E+00 -0.441739

  2 S  2.51051090E-01  1.000000

  3 S  8.36488661E-02  1.000000

  4 P  6.03322236E+00 -0.035604
  4 P  1.24991579E+00 -0.198958
  4 P  3.38716764E-01 -0.508502

  5 P  9.64156324E-02  1.000000

  6 D  5.00000000E-01  1.000000

  N (Nitrogen)
  ------------
            Exponent  Coefficients 
       -------------- ---------------------------------------------------------
  1 S  1.71284159E+03 -0.005393
  1 S  2.57648127E+02 -0.040222
  1 S  5.84582459E+01 -0.179311
  1 S  1.61983679E+01 -0.463763
  1 S  5.00526008E+00 -0.441714

  2 S  5.87318566E-01  1.000000

  3 S  1.87645923E-01  1.000000

  4 P  1.35714702E+01 -0.040072
  4 P  2.92573729E+00 -0.218070
  4 P  7.99277508E-01 -0.512945

  5 P  2.19543480E-01  1.000000

  6 D  1.00000000E+00  1.000000

  C (Carbon)
  ----------
            Exponent  Coefficients 
       -------------- ---------------------------------------------------------
  1 S  1.23840169E+03  0.005457
  1 S  1.86290050E+02  0.040638
  1 S  4.22511763E+01  0.180256
  1 S  1.16765579E+01  0.463151
  1 S  3.59305065E+00  0.440872

  2 S  4.02451474E-01  1.000000

  3 S  1.30901827E-01  1.000000

  4 P  9.46809706E+00  0.038388
  4 P  2.01035451E+00  0.211170
  4 P  5.47710047E-01  0.513282

  5 P  1.52686138E-01  1.000000

  6 D  8.00000000E-01  1.000000

  F (Fluorine)
  ------------
            Exponent  Coefficients 
       -------------- ---------------------------------------------------------
  1 S  2.89483260E+03 -0.005341
  1 S  4.35419391E+02 -0.039904
  1 S  9.88433289E+01 -0.179128
  1 S  2.74851980E+01 -0.467581
  1 S  8.54054982E+00 -0.446531

  2 S  1.06545780E+00  1.000000

  3 S  3.32473467E-01  1.000000

  4 P  2.26966339E+01 -0.045213
  4 P  4.98723393E+00 -0.237543
  4 P  1.34916140E+00 -0.512874

  5 P  3.48298820E-01  1.000000

  6 D  1.40000000E+00  1.000000

  H (Hydrogen)
  ------------
            Exponent  Coefficients 
       -------------- ---------------------------------------------------------
  1 S  1.30107010E+01  0.019682
  1 S  1.96225720E+00  0.137965
  1 S  4.44537960E-01  0.478319

  2 S  1.21949620E-01  1.000000

  3 P  8.00000000E-01  1.000000



 Summary of "ao basis" -> "ao basis" (spherical)
 ------------------------------------------------------------------------------
       Tag                 Description            Shells   Functions and Types
 ---------------- ------------------------------  ------  ---------------------
 B                          def2-svp                 6       14   3s2p1d
 N                          def2-svp                 6       14   3s2p1d
 C                          def2-svp                 6       14   3s2p1d
 F                          def2-svp                 6       14   3s2p1d
 H                          def2-svp                 3        5   2s1p




 Summary of "ao basis" -> "ao basis" (spherical)
 ------------------------------------------------------------------------------
       Tag                 Description            Shells   Functions and Types
 ---------------- ------------------------------  ------  ---------------------
 B                          def2-svp                 6       14   3s2p1d
 N                          def2-svp                 6       14   3s2p1d
 C                          def2-svp                 6       14   3s2p1d
 F                          def2-svp                 6       14   3s2p1d
 H                          def2-svp                 3        5   2s1p


      Symmetry analysis of basis
      --------------------------

        a1         89
        a2         29
        b1         73
        b2         40


 solvent parameters
 solvname_short: toluene 
 solvname_long:  toluene                            
 dielec:        2.3741
 dielecinf:     2.2383

          ---------------
          -cosmo- solvent
          ---------------
 Cosmo: York-Karplus, doi: 10.1021/jp992097l
 dielectric constant -eps-     =   2.37
 screen = (eps-1)/(eps    )    =   0.57879
 surface charge correction     = lagrangian
 -lineq- algorithm             =   0
 -bem- low  level              =   2
 -bem- from -octahedral-
 gaussian surface charge width =   0.98000
 degree of switching           =   1.00000
 switching function tolerance  =   0.00010
 atomic radii = 
 --------------
    1  5.000  2.047
    2  7.000  1.830
    3  6.000  2.000
    4  6.000  2.000
    5  6.000  2.000
    6  6.000  2.000
    7  6.000  2.000
    8  6.000  2.000
    9  7.000  1.830
   10  6.000  2.000
   11  6.000  2.000
   12  6.000  2.000
   13  9.000  1.720
   14  9.000  1.720
   15  1.000  1.300
   16  1.000  1.300
   17  1.000  1.300
   18  1.000  1.300
   19  1.000  1.300
   20  1.000  1.300
   21  1.000  1.300

 solvent accessible surface
 --------------------------

 ---------- ATOMIC COORDINATES (A.U.) ------------ VDWR(ANG.) --
     1    0.00000000    0.00000000   -2.27707471     2.047
     2   -2.35510586    0.00000000   -0.53454274     1.830
     3   -4.75728271    0.00000000   -1.24932758     2.000
     4   -6.34313966    0.00000000    0.87427082     2.000
     5   -4.80039080    0.00000000    2.96693049     2.000
     6   -2.27776410    0.00000000    2.07169988     2.000
     7    0.00000000    0.00000000    3.36193527     2.000
     8    2.27776410    0.00000000    2.07169988     2.000
     9    2.35510586    0.00000000   -0.53454274     1.830
    10    4.75728271    0.00000000   -1.24932758     2.000
    11    6.34313966    0.00000000    0.87427082     2.000
    12    4.80039080    0.00000000    2.96693049     2.000
    13    0.00000000    2.13444080   -3.76342315     1.720
    14    0.00000000   -2.13444080   -3.76342315     1.720
    15   -5.25712798    0.00000000   -3.21493123     1.300
    16   -8.36836292    0.00000000    0.83434718     1.300
    17   -5.34919913    0.00000000    4.91758044     1.300
    18    0.00000000    0.00000000    5.40210076     1.300
    19    5.25712798    0.00000000   -3.21493123     1.300
    20    8.36836292    0.00000000    0.83434718     1.300
    21    5.34919913    0.00000000    4.91758044     1.300
 number of segments per atom =         32
 number of   points per atom =         32
 atom (   nspa,  nppa )
 ----------------------
    1 (      4,     0 )       0
    2 (      8,     0 )       0
    3 (     14,     0 )       0
    4 (     12,     0 )       0
    5 (     16,     0 )       0
    6 (      8,     0 )       0
    7 (     12,     0 )       0
    8 (      8,     0 )       0
    9 (      8,     0 )       0
   10 (     14,     0 )       0
   11 (     12,     0 )       0
   12 (     16,     0 )       0
   13 (     22,     0 )       0
   14 (     22,     0 )       0
   15 (     14,     0 )       0
   16 (     16,     0 )       0
   17 (     14,     0 )       0
   18 (     16,     0 )       0
   19 (     14,     0 )       0
   20 (     16,     0 )       0
   21 (     14,     0 )       0
 number of -cosmo- surface points =      280
 molecular surface =    215.042 angstrom**2
 molecular volume  =    129.716 angstrom**3
 G(cav/disp)       =      1.935 kcal/mol
 ...... end of -cosmo- initialization ......


  Caching 1-el integrals 

            General Information
            -------------------
          SCF calculation type: DFT
          Wavefunction type:  closed shell.
          No. of atoms     :    21
          No. of electrons :    98
           Alpha electrons :    49
            Beta electrons :    49
          Charge           :     0
          Spin multiplicity:     1
          Use of symmetry is: on ; symmetry adaption is: on 
          Maximum number of iterations: 500
          This is a Direct SCF calculation.
          AO basis - number of functions:   231
                     number of shells:   105
          Convergence on energy requested:  1.00D-06
          Convergence on density requested:  1.00D-05
          Convergence on gradient requested:  5.00D-04

              XC Information
              --------------
                         B3LYP Method XC Potential
                     Hartree-Fock (Exact) Exchange  0.200          
                        Slater Exchange Functional  0.800 local    
                    Becke 1988 Exchange Functional  0.720 non-local
              Lee-Yang-Parr Correlation Functional  0.810          
                  VWN I RPA Correlation Functional  0.190 local    

             Grid Information
             ----------------
          Grid used for XC integration:  xfine     
          Radial quadrature: Mura-Knowles        
          Angular quadrature: Lebedev. 
          Tag              B.-S. Rad. Rad. Pts. Rad. Cut. Ang. Pts.
          ---              ---------- --------- --------- ---------
          B                   0.85      100          12.0      1454
          N                   0.65      100          14.0      1454
          C                   0.70      100          16.0      1454
          F                   0.50      100          13.0      1454
          H                   0.35      100          16.0      1202
          Grid pruning is: on 
          Number of quadrature shells:  1200
          Spatial weights used:  Erf1

          Convergence Information
          -----------------------
          Convergence aids based upon iterative change in 
          total energy or number of iterations. 
          Levelshifting, if invoked, occurs when the 
          HOMO/LUMO gap drops below (HL_TOL):  1.00D-02
          DIIS, if invoked, will attempt to extrapolate 
          using up to (NFOCK): 10 stored Fock matrices.

                    Damping(40%)  Levelshifting(0.0)       DIIS
                  --------------- ------------------- ---------------
          dE  on:    start            0.00D+00            start   
          dE off:  500 iters          0.00D+00          500 iters 


      Screening Tolerance Information
      -------------------------------
          Density screening/tol_rho:  1.00D-10
          AO Gaussian exp screening on grid/accAOfunc:  14
          CD Gaussian exp screening on grid/accCDfunc:  20
          XC Gaussian exp screening on grid/accXCfunc:  20
          Schwarz screening/accCoul:  1.00D-08

      Dispersion Parameters
      ---------------------

           DFT-D3BJ Model   
          s6 scale factor  :        1.000000000000
          s8 scale factor  :        1.988900000000
          a1 parameter     :        0.398100000000
          a2 parameter     :        4.421100000000
              vdW contrib  :       -0.043313478588


      Superposition of Atomic Density Guess
      -------------------------------------

 Sum of atomic energies:        -673.69562842

      Non-variational initial energy
      ------------------------------

 Total energy =    -683.335541
 1-e energy   =   -2640.320735
 2-e energy   =    1090.274805
 HOMO         =      -0.225938
 LUMO         =      -0.113650


      Symmetry analysis of molecular orbitals - initial
      -------------------------------------------------

  Numbering of irreducible representations: 

     1 a1          2 a2          3 b1          4 b2      

  Orbital symmetries:

     1 a1          2 b2          3 a1          4 b1          5 a1      
     6 b1          7 a1          8 b1          9 a1         10 b1      
    11 a1         12 b1         13 a1         14 a1         15 a1      
    16 b1         17 a1         18 b2         19 a1         20 a1      
    21 b1         22 b1         23 a1         24 a1         25 a1      
    26 b1         27 b1         28 a1         29 b1         30 b2      
    31 a1         32 a1         33 b1         34 a2         35 b2      
    36 b2         37 a2         38 a1         39 b1         40 a1      
    41 a1         42 b1         43 b1         44 a1         45 b1      
    46 b2         47 b2         48 a2         49 a2         50 b2      
    51 a2         52 b2         53 a2         54 a1         55 b1      
    56 a1         57 b2         58 a1         59 b1      

   Time after variat. SCF:      1.8
   Time prior to 1st pass:      1.8

 Grid_pts file          = ./BODIPY.gridpts.0
 Record size in doubles =  12289        No. of grid_pts per rec  =   3070
 Max. records in memory =    626        Max. recs in file   =    317512


           Memory utilization after 1st SCF pass: 
           Heap Space remaining (MW):        5.26             5262666
          Stack Space remaining (MW):       13.11            13105356

   convergence    iter        energy       DeltaE   RMS-Dens  Diis-err    time
 ---------------- ----- ----------------- --------- --------- ---------  ------
     COSMO gas phase
 d=40,ls=0.0,diis     1   -680.7410696338 -1.55D+03  8.70D-03  1.55D+00    11.9
 d=40,ls=0.0,diis     2   -680.8251400485 -8.41D-02  2.81D-03  3.32D-01    20.9
 d=40,ls=0.0,diis     3   -680.8867335912 -6.16D-02  1.28D-03  3.18D-02    29.4
 d=40,ls=0.0,diis     4   -680.9098452136 -2.31D-02  5.39D-04  1.25D-02    37.9
 d=40,ls=0.0,diis     5   -680.9208211798 -1.10D-02  2.08D-04  1.28D-03    47.8
  Resetting Diis
 d=40,ls=0.0,diis     6   -680.9250164097 -4.20D-03  8.64D-05  2.38D-04    57.8
 d=40,ls=0.0,diis     7   -680.9266927235 -1.68D-03  5.00D-05  3.88D-05    67.7
 d=40,ls=0.0,diis     8   -680.9273595446 -6.67D-04  1.83D-05  1.48D-05    78.1
 d=40,ls=0.0,diis     9   -680.9276282880 -2.69D-04  6.75D-06  1.02D-06    88.2
 d=40,ls=0.0,diis    10   -680.9277355663 -1.07D-04  3.46D-06  3.90D-07    98.3
 d=40,ls=0.0,diis    11   -680.9277785331 -4.30D-05  1.27D-06  4.99D-08   108.3
 d=40,ls=0.0,diis    12   -680.9277957145 -1.72D-05  5.30D-07  9.64D-09   118.9
 d=40,ls=0.0,diis    13   -680.9278025876 -6.87D-06  2.14D-07  1.47D-09   128.9
 d=40,ls=0.0,diis    14   -680.9278053366 -2.75D-06  8.88D-08  2.52D-10   139.3
 d=40,ls=0.0,diis    15   -680.9278064362 -1.10D-06  3.65D-08  4.28D-11   149.7
 d=40,ls=0.0,diis    16   -680.9278068760 -4.40D-07  1.49D-08  6.91D-12   160.0

           Memory utilization after 1st SCF pass: 
           Heap Space remaining (MW):        5.26             5261810
          Stack Space remaining (MW):       13.11            13105356

   convergence    iter        energy       DeltaE   RMS-Dens  Diis-err    time
 ---------------- ----- ----------------- --------- --------- ---------  ------
     COSMO solvation phase
 d=40,ls=0.0,diis     1   -680.9353937832 -7.59D-03  7.78D-04  2.01D-03   172.1
 d=40,ls=0.0,diis     2   -680.9357099505 -3.16D-04  2.52D-04  5.88D-04   183.2
 d=40,ls=0.0,diis     3   -680.9358748387 -1.65D-04  1.05D-04  7.02D-05   194.7
 d=40,ls=0.0,diis     4   -680.9359466272 -7.18D-05  4.56D-05  9.89D-06   206.3
 d=40,ls=0.0,diis     5   -680.9359754532 -2.88D-05  2.04D-05  1.57D-06   217.5
 d=40,ls=0.0,diis     6   -680.9359870296 -1.16D-05  8.29D-06  2.79D-07   228.7
 d=40,ls=0.0,diis     7   -680.9359916655 -4.64D-06  3.37D-06  4.80D-08   240.5
 d=40,ls=0.0,diis     8   -680.9359935138 -1.85D-06  1.39D-06  6.86D-09   252.0
 d=40,ls=0.0,diis     9   -680.9359942560 -7.42D-07  5.55D-07  1.14D-09   263.4


         Total DFT energy =     -680.935994255976
      One electron energy =    -2651.131417509366
           Coulomb energy =     1193.523688905276
    Exchange-Corr. energy =      -90.476468326883
 Nuclear repulsion energy =      866.710389219750

    Dispersion correction =       -0.043313478588

             COSMO energy =        0.481126933836

 Numeric. integr. density =       97.999999953208

     Total iterative time =    261.6s


                                   COSMO solvation results
                                   -----------------------

                 gas phase energy =      -680.927806876042
                 sol phase energy =      -680.935994255976
 (electrostatic) solvation energy =         0.008187379934 (    5.14 kcal/mol)

                  Occupations of the irreducible representations
                  ----------------------------------------------

                     irrep           alpha         beta
                     --------     --------     --------
                     a1               22.0         22.0
                     a2                4.0          4.0
                     b1               16.0         16.0
                     b2                7.0          7.0


                       DFT Final Molecular Orbital Analysis
                       ------------------------------------

 Vector    1  Occ=2.000000D+00  E=-2.463653D+01  Symmetry=a1
              MO Center=  3.8D-19, -2.6D-16, -2.0D+00, r^2= 1.3D+00
   Bfn.  Coefficient  Atom+Function         Bfn.  Coefficient  Atom+Function  
  ----- ------------  ---------------      ----- ------------  ---------------
   169      0.699124  13 F  s               183      0.699124  14 F  s         
   170     -0.028752  13 F  s               184     -0.028752  14 F  s         

 Vector    2  Occ=2.000000D+00  E=-2.463646D+01  Symmetry=b2
              MO Center=  6.0D-20,  5.8D-17, -2.0D+00, r^2= 1.3D+00
   Bfn.  Coefficient  Atom+Function         Bfn.  Coefficient  Atom+Function  
  ----- ------------  ---------------      ----- ------------  ---------------
   169      0.699215  13 F  s               183     -0.699215  14 F  s         
   170     -0.027669  13 F  s               184      0.027669  14 F  s         

 Vector    3  Occ=2.000000D+00  E=-1.436425D+01  Symmetry=b1
              MO Center= -2.5D-10,  3.2D-20, -2.8D-01, r^2= 1.6D+00
   Bfn.  Coefficient  Atom+Function         Bfn.  Coefficient  Atom+Function  
  ----- ------------  ---------------      ----- ------------  ---------------
    15      0.698703   2 N  s               113     -0.698703   9 N  s         
    17      0.039481   2 N  s               115     -0.039481   9 N  s         
    16     -0.034339   2 N  s               114      0.034339   9 N  s         

 Vector    4  Occ=2.000000D+00  E=-1.436423D+01  Symmetry=a1
              MO Center=  2.5D-10,  1.7D-20, -2.8D-01, r^2= 1.6D+00
   Bfn.  Coefficient  Atom+Function         Bfn.  Coefficient  Atom+Function  
  ----- ------------  ---------------      ----- ------------  ---------------
    15      0.698750   2 N  s               113      0.698750   9 N  s         
    17      0.035156   2 N  s               115      0.035156   9 N  s         
    16     -0.033779   2 N  s               114     -0.033779   9 N  s         

 Vector    5  Occ=2.000000D+00  E=-1.024107D+01  Symmetry=a1
              MO Center= -7.5D-19, -4.3D-22,  1.8D+00, r^2= 3.5D-02
   Bfn.  Coefficient  Atom+Function         Bfn.  Coefficient  Atom+Function  
  ----- ------------  ---------------      ----- ------------  ---------------
    85      0.986952   7 C  s                86      0.050302   7 C  s         
    71      0.028983   6 C  s                99      0.028983   8 C  s         
    59     -0.025530   5 C  s               157     -0.025530  12 C  s         

 Vector    6  Occ=2.000000D+00  E=-1.023852D+01  Symmetry=b1
              MO Center= -2.4D-10,  3.8D-18, -6.6D-01, r^2= 6.4D+00
   Bfn.  Coefficient  Atom+Function         Bfn.  Coefficient  Atom+Function  
  ----- ------------  ---------------      ----- ------------  ---------------
    29      0.698536   3 C  s               127     -0.698536  10 C  s         
    30      0.036473   3 C  s               128     -0.036473  10 C  s         

 Vector    7  Occ=2.000000D+00  E=-1.023849D+01  Symmetry=a1
              MO Center=  2.4D-10,  6.1D-21, -6.6D-01, r^2= 6.4D+00
   Bfn.  Coefficient  Atom+Function         Bfn.  Coefficient  Atom+Function  
  ----- ------------  ---------------      ----- ------------  ---------------
    29      0.698488   3 C  s               127      0.698488  10 C  s         
    30      0.035414   3 C  s               128      0.035414  10 C  s         

 Vector    8  Occ=2.000000D+00  E=-1.023307D+01  Symmetry=a1
              MO Center= -2.3D-10,  1.5D-20,  1.1D+00, r^2= 1.5D+00
   Bfn.  Coefficient  Atom+Function         Bfn.  Coefficient  Atom+Function  
  ----- ------------  ---------------      ----- ------------  ---------------
    71      0.697850   6 C  s                99      0.697850   8 C  s         
    85     -0.039768   7 C  s                72      0.036481   6 C  s         
   100      0.036481   8 C  s         

 Vector    9  Occ=2.000000D+00  E=-1.023298D+01  Symmetry=b1
              MO Center=  2.3D-10,  1.5D-18,  1.1D+00, r^2= 1.5D+00
   Bfn.  Coefficient  Atom+Function         Bfn.  Coefficient  Atom+Function  
  ----- ------------  ---------------      ----- ------------  ---------------
    71      0.698670   6 C  s                99     -0.698670   8 C  s         
    72      0.034321   6 C  s               100     -0.034321   8 C  s         

 Vector   10  Occ=2.000000D+00  E=-1.020557D+01  Symmetry=a1
              MO Center= -1.6D-09,  5.7D-21,  1.6D+00, r^2= 6.5D+00
   Bfn.  Coefficient  Atom+Function         Bfn.  Coefficient  Atom+Function  
  ----- ------------  ---------------      ----- ------------  ---------------
    57      0.698470   5 C  s               155      0.698470  12 C  s         
    87     -0.039675   7 C  s                58      0.035229   5 C  s         
   156      0.035229  12 C  s                73      0.028004   6 C  s         
   101      0.028004   8 C  s         

 Vector   11  Occ=2.000000D+00  E=-1.020557D+01  Symmetry=b1
              MO Center=  1.6D-09, -3.7D-18,  1.6D+00, r^2= 6.5D+00
   Bfn.  Coefficient  Atom+Function         Bfn.  Coefficient  Atom+Function  
  ----- ------------  ---------------      ----- ------------  ---------------
    57      0.698498   5 C  s               155     -0.698498  12 C  s         
    58      0.034527   5 C  s               156     -0.034527  12 C  s         

 Vector   12  Occ=2.000000D+00  E=-1.019412D+01  Symmetry=b1
              MO Center= -8.2D-09,  3.1D-18,  4.6D-01, r^2= 1.1D+01
   Bfn.  Coefficient  Atom+Function         Bfn.  Coefficient  Atom+Function  
  ----- ------------  ---------------      ----- ------------  ---------------
    43      0.698524   4 C  s               141     -0.698524  11 C  s         
    44      0.034516   4 C  s               142     -0.034516  11 C  s         

 Vector   13  Occ=2.000000D+00  E=-1.019412D+01  Symmetry=a1
              MO Center=  8.2D-09,  1.2D-20,  4.6D-01, r^2= 1.1D+01
   Bfn.  Coefficient  Atom+Function         Bfn.  Coefficient  Atom+Function  
  ----- ------------  ---------------      ----- ------------  ---------------
    43      0.698523   4 C  s               141      0.698523  11 C  s         
    44      0.034427   4 C  s               142      0.034427  11 C  s         
    45     -0.025568   4 C  s               143     -0.025568  11 C  s         

 Vector   14  Occ=2.000000D+00  E=-6.832884D+00  Symmetry=a1
              MO Center= -6.9D-18,  2.7D-18, -1.2D+00, r^2= 4.1D-02
   Bfn.  Coefficient  Atom+Function         Bfn.  Coefficient  Atom+Function  
  ----- ------------  ---------------      ----- ------------  ---------------
     1      0.987398   1 B  s                 2     -0.065859   1 B  s         
    87      0.027161   7 C  s         

 Vector   15  Occ=2.000000D+00  E=-1.153488D+00  Symmetry=a1
              MO Center= -4.4D-17, -5.2D-14, -1.9D+00, r^2= 1.4D+00
   Bfn.  Coefficient  Atom+Function         Bfn.  Coefficient  Atom+Function  
  ----- ------------  ---------------      ----- ------------  ---------------
   170      0.410419  13 F  s               184      0.410419  14 F  s         
   171      0.260393  13 F  s               185      0.260393  14 F  s         
   169      0.206335  13 F  s               183      0.206335  14 F  s         
     2      0.162518   1 B  s                 1      0.096610   1 B  s         
     6      0.084978   1 B  pz              173      0.056349  13 F  py        

 Vector   16  Occ=2.000000D+00  E=-1.118514D+00  Symmetry=b2
              MO Center=  3.6D-17,  5.3D-14, -1.9D+00, r^2= 1.5D+00
   Bfn.  Coefficient  Atom+Function         Bfn.  Coefficient  Atom+Function  
  ----- ------------  ---------------      ----- ------------  ---------------
   170      0.433229  13 F  s               184     -0.433229  14 F  s         
   171      0.272446  13 F  s               185     -0.272446  14 F  s         
   169      0.216829  13 F  s               183     -0.216829  14 F  s         
     5     -0.145911   1 B  py               11     -0.040736   1 B  d -1      
   173      0.039418  13 F  py              187      0.039418  14 F  py        

 Vector   17  Occ=2.000000D+00  E=-1.003089D+00  Symmetry=a1
              MO Center=  8.0D-14, -6.1D-16,  7.9D-02, r^2= 3.6D+00
   Bfn.  Coefficient  Atom+Function         Bfn.  Coefficient  Atom+Function  
  ----- ------------  ---------------      ----- ------------  ---------------
    16      0.297122   2 N  s               114      0.297122   9 N  s         
    72      0.175691   6 C  s               100      0.175691   8 C  s         
    30      0.152843   3 C  s               128      0.152843  10 C  s         
    15      0.149393   2 N  s               113      0.149393   9 N  s         
    17      0.122989   2 N  s               115      0.122989   9 N  s         

 Vector   18  Occ=2.000000D+00  E=-9.867520D-01  Symmetry=b1
              MO Center= -8.1D-14,  3.2D-21,  2.8D-02, r^2= 4.0D+00
   Bfn.  Coefficient  Atom+Function         Bfn.  Coefficient  Atom+Function  
  ----- ------------  ---------------      ----- ------------  ---------------
    16      0.302345   2 N  s               114     -0.302345   9 N  s         
    30      0.176200   3 C  s               128     -0.176200  10 C  s         
    72      0.156135   6 C  s               100     -0.156135   8 C  s         
    15      0.150714   2 N  s               113     -0.150714   9 N  s         
    17      0.122914   2 N  s               115     -0.122914   9 N  s         

 Vector   19  Occ=2.000000D+00  E=-8.224115D-01  Symmetry=a1
              MO Center= -2.5D-16, -8.2D-17,  9.6D-01, r^2= 3.4D+00
   Bfn.  Coefficient  Atom+Function         Bfn.  Coefficient  Atom+Function  
  ----- ------------  ---------------      ----- ------------  ---------------
    86      0.373731   7 C  s                72      0.212484   6 C  s         
   100      0.212484   8 C  s                85     -0.189781   7 C  s         
    30     -0.167473   3 C  s               128     -0.167473  10 C  s         
    71     -0.107969   6 C  s                74      0.108338   6 C  px        
    99     -0.107969   8 C  s               102     -0.108338   8 C  px        

 Vector   20  Occ=2.000000D+00  E=-7.972345D-01  Symmetry=a1
              MO Center=  8.9D-17,  1.8D-16,  6.2D-01, r^2= 7.2D+00
   Bfn.  Coefficient  Atom+Function         Bfn.  Coefficient  Atom+Function  
  ----- ------------  ---------------      ----- ------------  ---------------
    58      0.237960   5 C  s               156      0.237960  12 C  s         
    44      0.215883   4 C  s               142      0.215883  11 C  s         
    16     -0.200732   2 N  s               114     -0.200732   9 N  s         
    57     -0.122510   5 C  s               155     -0.122510  12 C  s         
    43     -0.112124   4 C  s               141     -0.112124  11 C  s         

 Vector   21  Occ=2.000000D+00  E=-7.847501D-01  Symmetry=b1
              MO Center=  9.1D-17, -1.1D-16,  6.7D-01, r^2= 7.5D+00
   Bfn.  Coefficient  Atom+Function         Bfn.  Coefficient  Atom+Function  
  ----- ------------  ---------------      ----- ------------  ---------------
    58      0.253966   5 C  s               156     -0.253966  12 C  s         
    44      0.214724   4 C  s               142     -0.214724  11 C  s         
    16     -0.210443   2 N  s               114      0.210443   9 N  s         
    57     -0.130052   5 C  s               155      0.130052  12 C  s         
    43     -0.110909   4 C  s               141      0.110909  11 C  s         

 Vector   22  Occ=2.000000D+00  E=-7.339408D-01  Symmetry=b1
              MO Center= -4.0D-14, -4.5D-17,  3.3D-01, r^2= 6.5D+00
   Bfn.  Coefficient  Atom+Function         Bfn.  Coefficient  Atom+Function  
  ----- ------------  ---------------      ----- ------------  ---------------
    72      0.263832   6 C  s               100     -0.263832   8 C  s         
    30     -0.238917   3 C  s               128      0.238917  10 C  s         
    44     -0.173982   4 C  s               142      0.173982  11 C  s         
    88     -0.142012   7 C  px               71     -0.128327   6 C  s         
    99      0.128327   8 C  s                29      0.117736   3 C  s         

 Vector   23  Occ=2.000000D+00  E=-6.742172D-01  Symmetry=a1
              MO Center=  4.9D-14, -1.2D-19,  4.5D-01, r^2= 6.7D+00
   Bfn.  Coefficient  Atom+Function         Bfn.  Coefficient  Atom+Function  
  ----- ------------  ---------------      ----- ------------  ---------------
    86      0.298180   7 C  s                30      0.248048   3 C  s         
   128      0.248048  10 C  s                87      0.177372   7 C  s         
    58     -0.161382   5 C  s               156     -0.161382  12 C  s         
    85     -0.143289   7 C  s               212      0.130397  18 H  s         
    74      0.123707   6 C  px              102     -0.123707   8 C  px        

 Vector   24  Occ=2.000000D+00  E=-6.167768D-01  Symmetry=a1
              MO Center= -4.4D-14, -6.4D-16,  2.2D-01, r^2= 8.1D+00
   Bfn.  Coefficient  Atom+Function         Bfn.  Coefficient  Atom+Function  
  ----- ------------  ---------------      ----- ------------  ---------------
    44      0.224322   4 C  s               142      0.224322  11 C  s         
    18     -0.206779   2 N  px              116      0.206779   9 N  px        
     2      0.192402   1 B  s               202      0.136470  16 H  s         
   222      0.136470  20 H  s                32     -0.130679   3 C  px        
   130      0.130679  10 C  px               60     -0.122491   5 C  px        

 Vector   25  Occ=2.000000D+00  E=-6.011228D-01  Symmetry=a1
              MO Center=  2.3D-15, -1.9D-16,  4.8D-01, r^2= 6.6D+00
   Bfn.  Coefficient  Atom+Function         Bfn.  Coefficient  Atom+Function  
  ----- ------------  ---------------      ----- ------------  ---------------
     2      0.210899   1 B  s                20      0.204063   2 N  pz        
   118      0.204063   9 N  pz               58      0.183132   5 C  s         
   156      0.183132  12 C  s               207      0.136964  17 H  s         
   227      0.136964  21 H  s                76      0.133001   6 C  pz        
   104      0.133001   8 C  pz               87     -0.129986   7 C  s         

 Vector   26  Occ=2.000000D+00  E=-5.902616D-01  Symmetry=b1
              MO Center=  7.3D-14, -4.0D-16,  5.3D-01, r^2= 7.3D+00
   Bfn.  Coefficient  Atom+Function         Bfn.  Coefficient  Atom+Function  
  ----- ------------  ---------------      ----- ------------  ---------------
    20      0.206402   2 N  pz              118     -0.206402   9 N  pz        
    58      0.180363   5 C  s               156     -0.180363  12 C  s         
    76      0.166445   6 C  pz              104     -0.166445   8 C  pz        
    59      0.155222   5 C  s               157     -0.155222  12 C  s         
   207      0.146975  17 H  s               227     -0.146975  21 H  s         

 Vector   27  Occ=2.000000D+00  E=-5.840559D-01  Symmetry=b1
              MO Center=  2.3D-15,  2.0D-16,  5.1D-01, r^2= 7.7D+00
   Bfn.  Coefficient  Atom+Function         Bfn.  Coefficient  Atom+Function  
  ----- ------------  ---------------      ----- ------------  ---------------
    88      0.239055   7 C  px               30     -0.189101   3 C  s         
   128      0.189101  10 C  s                72     -0.187909   6 C  s         
   100      0.187909   8 C  s                48      0.153247   4 C  pz        
   146     -0.153247  11 C  pz               16      0.129537   2 N  s         
   114     -0.129537   9 N  s                60     -0.128692   5 C  px        

 Vector   28  Occ=2.000000D+00  E=-5.534057D-01  Symmetry=b1
              MO Center=  7.6D-15, -4.4D-16,  2.6D-01, r^2= 8.9D+00
   Bfn.  Coefficient  Atom+Function         Bfn.  Coefficient  Atom+Function  
  ----- ------------  ---------------      ----- ------------  ---------------
    18      0.195188   2 N  px              116      0.195188   9 N  px        
   202     -0.175708  16 H  s               222      0.175708  20 H  s         
    46      0.161667   4 C  px              144      0.161667  11 C  px        
    74     -0.160416   6 C  px              102     -0.160416   8 C  px        
     4     -0.158941   1 B  px               88      0.158595   7 C  px        

 Vector   29  Occ=2.000000D+00  E=-5.156321D-01  Symmetry=a1
              MO Center= -2.2D-14, -5.9D-17,  2.8D-01, r^2= 8.5D+00
   Bfn.  Coefficient  Atom+Function         Bfn.  Coefficient  Atom+Function  
  ----- ------------  ---------------      ----- ------------  ---------------
    87      0.316923   7 C  s                59     -0.223383   5 C  s         
   157     -0.223383  12 C  s               212      0.223793  18 H  s         
    90      0.208343   7 C  pz              197     -0.195872  15 H  s         
   217     -0.195872  19 H  s                45      0.182801   4 C  s         
   143      0.182801  11 C  s                34      0.177684   3 C  pz        

 Vector   30  Occ=2.000000D+00  E=-5.084706D-01  Symmetry=a1
              MO Center= -9.2D-15, -2.2D-14, -9.0D-01, r^2= 6.5D+00
   Bfn.  Coefficient  Atom+Function         Bfn.  Coefficient  Atom+Function  
  ----- ------------  ---------------      ----- ------------  ---------------
   173      0.299775  13 F  py              187     -0.299775  14 F  py        
     2      0.262015   1 B  s               176     -0.172649  13 F  py        
   190      0.172649  14 F  py                6      0.161000   1 B  pz        
     3     -0.124058   1 B  s                60      0.123459   5 C  px        
   158     -0.123459  12 C  px               32     -0.113240   3 C  px        

 Vector   31  Occ=2.000000D+00  E=-4.890265D-01  Symmetry=b2
              MO Center= -2.4D-15,  1.7D-14, -1.2D+00, r^2= 3.4D+00
   Bfn.  Coefficient  Atom+Function         Bfn.  Coefficient  Atom+Function  
  ----- ------------  ---------------      ----- ------------  ---------------
     5      0.288229   1 B  py              174      0.270377  13 F  pz        
   188     -0.270377  14 F  pz              173     -0.191227  13 F  py        
   187     -0.191227  14 F  py               19      0.170215   2 N  py        
   117      0.170215   9 N  py              177     -0.155246  13 F  pz        
   191      0.155246  14 F  pz              171      0.133479  13 F  s         

 Vector   32  Occ=2.000000D+00  E=-4.707061D-01  Symmetry=a1
              MO Center= -2.0D-15, -1.2D-15,  1.5D-01, r^2= 6.0D+00
   Bfn.  Coefficient  Atom+Function         Bfn.  Coefficient  Atom+Function  
  ----- ------------  ---------------      ----- ------------  ---------------
    90     -0.248641   7 C  pz                6      0.227971   1 B  pz        
   173      0.199858  13 F  py              187     -0.199858  14 F  py        
   212     -0.177820  18 H  s                18      0.171198   2 N  px        
   116     -0.171198   9 N  px               74      0.150994   6 C  px        
   102     -0.150994   8 C  px               32      0.145529   3 C  px        

 Vector   33  Occ=2.000000D+00  E=-4.607257D-01  Symmetry=b1
              MO Center=  1.6D-14,  5.3D-16,  2.5D-01, r^2= 7.7D+00
   Bfn.  Coefficient  Atom+Function         Bfn.  Coefficient  Atom+Function  
  ----- ------------  ---------------      ----- ------------  ---------------
    20      0.182600   2 N  pz              118     -0.182600   9 N  pz        
    62     -0.179134   5 C  pz              160      0.179134  12 C  pz        
   172      0.176667  13 F  px              186      0.176667  14 F  px        
   207     -0.175399  17 H  s               227      0.175399  21 H  s         
     4      0.173208   1 B  px               76      0.172011   6 C  pz        

 Vector   34  Occ=2.000000D+00  E=-4.483916D-01  Symmetry=b1
              MO Center=  3.2D-14, -8.9D-15, -3.1D-01, r^2= 7.1D+00
   Bfn.  Coefficient  Atom+Function         Bfn.  Coefficient  Atom+Function  
  ----- ------------  ---------------      ----- ------------  ---------------
    18      0.211525   2 N  px              116      0.211525   9 N  px        
    88     -0.197316   7 C  px               32      0.190530   3 C  px        
    59     -0.189837   5 C  s               130      0.190530  10 C  px        
   157      0.189837  12 C  s               172     -0.173666  13 F  px        
   186     -0.173666  14 F  px                4     -0.153717   1 B  px        

 Vector   35  Occ=2.000000D+00  E=-4.416364D-01  Symmetry=a1
              MO Center=  2.3D-15, -3.6D-16,  6.5D-01, r^2= 1.0D+01
   Bfn.  Coefficient  Atom+Function         Bfn.  Coefficient  Atom+Function  
  ----- ------------  ---------------      ----- ------------  ---------------
    46      0.245051   4 C  px              144     -0.245051  11 C  px        
    90     -0.214720   7 C  pz              202     -0.202638  16 H  s         
   222     -0.202638  20 H  s                87      0.172753   7 C  s         
   212     -0.146330  18 H  s                62     -0.132374   5 C  pz        
   160     -0.132374  12 C  pz               73     -0.130244   6 C  s         

 Vector   36  Occ=2.000000D+00  E=-4.401182D-01  Symmetry=b2
              MO Center= -5.7D-14,  3.9D-15, -2.9D-01, r^2= 5.2D+00
   Bfn.  Coefficient  Atom+Function         Bfn.  Coefficient  Atom+Function  
  ----- ------------  ---------------      ----- ------------  ---------------
   173      0.199355  13 F  py              187      0.199355  14 F  py        
    75     -0.183109   6 C  py              103     -0.183109   8 C  py        
     5     -0.176258   1 B  py              174     -0.173505  13 F  pz        
   188      0.173505  14 F  pz               19      0.172323   2 N  py        
   117      0.172323   9 N  py               89     -0.152816   7 C  py        

 Vector   37  Occ=2.000000D+00  E=-4.353338D-01  Symmetry=a2
              MO Center=  6.3D-14,  8.0D-15, -1.1D-01, r^2= 5.3D+00
   Bfn.  Coefficient  Atom+Function         Bfn.  Coefficient  Atom+Function  
  ----- ------------  ---------------      ----- ------------  ---------------
    19      0.258275   2 N  py              117     -0.258275   9 N  py        
    33     -0.176626   3 C  py              131      0.176626  10 C  py        
    22     -0.167526   2 N  py              120      0.167526   9 N  py        
    75     -0.156513   6 C  py              103      0.156513   8 C  py        
   172     -0.139251  13 F  px              186      0.139251  14 F  px        

 Vector   38  Occ=2.000000D+00  E=-4.152175D-01  Symmetry=a1
              MO Center=  3.3D-13, -1.6D-15,  1.0D+00, r^2= 9.6D+00
   Bfn.  Coefficient  Atom+Function         Bfn.  Coefficient  Atom+Function  
  ----- ------------  ---------------      ----- ------------  ---------------
   207      0.197043  17 H  s               227      0.197043  21 H  s         
    62      0.174103   5 C  pz              160      0.174103  12 C  pz        
   202     -0.149738  16 H  s               222     -0.149738  20 H  s         
    73     -0.147942   6 C  s               101     -0.147942   8 C  s         
    46      0.143275   4 C  px              144     -0.143275  11 C  px        

 Vector   39  Occ=2.000000D+00  E=-4.107724D-01  Symmetry=a1
              MO Center=  1.5D-12, -4.2D-15, -9.0D-02, r^2= 8.5D+00
   Bfn.  Coefficient  Atom+Function         Bfn.  Coefficient  Atom+Function  
  ----- ------------  ---------------      ----- ------------  ---------------
    34      0.196643   3 C  pz              132      0.196643  10 C  pz        
   174     -0.194260  13 F  pz              188     -0.194260  14 F  pz        
    48     -0.186413   4 C  pz              146     -0.186413  11 C  pz        
   197     -0.171469  15 H  s               217     -0.171469  19 H  s         
    90     -0.158812   7 C  pz               62      0.156716   5 C  pz        

 Vector   40  Occ=2.000000D+00  E=-4.076601D-01  Symmetry=b1
              MO Center= -1.8D-12, -1.5D-15,  3.1D-01, r^2= 1.0D+01
   Bfn.  Coefficient  Atom+Function         Bfn.  Coefficient  Atom+Function  
  ----- ------------  ---------------      ----- ------------  ---------------
    48     -0.241616   4 C  pz              146      0.241616  11 C  pz        
    34      0.228967   3 C  pz              132     -0.228967  10 C  pz        
    62      0.211131   5 C  pz              160     -0.211131  12 C  pz        
   207      0.174755  17 H  s               227     -0.174755  21 H  s         
   197     -0.150803  15 H  s               217      0.150803  19 H  s         

 Vector   41  Occ=2.000000D+00  E=-3.977889D-01  Symmetry=b1
              MO Center= -1.6D-13, -3.4D-15,  8.6D-01, r^2= 9.3D+00
   Bfn.  Coefficient  Atom+Function         Bfn.  Coefficient  Atom+Function  
  ----- ------------  ---------------      ----- ------------  ---------------
    74     -0.258911   6 C  px              102     -0.258911   8 C  px        
    60      0.248379   5 C  px              158      0.248379  12 C  px        
    46     -0.222627   4 C  px              144     -0.222627  11 C  px        
    88      0.217389   7 C  px              202      0.199501  16 H  s         
   222     -0.199501  20 H  s               203      0.103161  16 H  s         

 Vector   42  Occ=2.000000D+00  E=-3.762416D-01  Symmetry=a2
              MO Center=  3.2D-15, -2.7D-14, -1.6D+00, r^2= 3.3D+00
   Bfn.  Coefficient  Atom+Function         Bfn.  Coefficient  Atom+Function  
  ----- ------------  ---------------      ----- ------------  ---------------
   172      0.443079  13 F  px              186     -0.443079  14 F  px        
   175     -0.312417  13 F  px              189      0.312417  14 F  px        
    61     -0.078468   5 C  py              159      0.078468  12 C  py        
    75     -0.074680   6 C  py              103      0.074680   8 C  py        
    47     -0.071737   4 C  py              145      0.071737  11 C  py        

 Vector   43  Occ=2.000000D+00  E=-3.749157D-01  Symmetry=a1
              MO Center=  1.7D-14, -1.1D-14, -1.1D+00, r^2= 4.4D+00
   Bfn.  Coefficient  Atom+Function         Bfn.  Coefficient  Atom+Function  
  ----- ------------  ---------------      ----- ------------  ---------------
   174      0.361671  13 F  pz              188      0.361671  14 F  pz        
   177     -0.231733  13 F  pz              191     -0.231733  14 F  pz        
    20      0.173527   2 N  pz              118      0.173527   9 N  pz        
     9     -0.154443   1 B  pz               87     -0.149818   7 C  s         
     6     -0.143017   1 B  pz               76      0.141560   6 C  pz        

 Vector   44  Occ=2.000000D+00  E=-3.610742D-01  Symmetry=b2
              MO Center= -2.2D-15,  1.9D-14, -1.8D+00, r^2= 2.4D+00
   Bfn.  Coefficient  Atom+Function         Bfn.  Coefficient  Atom+Function  
  ----- ------------  ---------------      ----- ------------  ---------------
   173      0.378753  13 F  py              187      0.378753  14 F  py        
   174      0.282131  13 F  pz              188     -0.282131  14 F  pz        
   176     -0.246210  13 F  py              190     -0.246210  14 F  py        
   177     -0.199064  13 F  pz              191      0.199064  14 F  pz        
     8     -0.114591   1 B  py               89      0.063589   7 C  py        

 Vector   45  Occ=2.000000D+00  E=-3.493325D-01  Symmetry=b1
              MO Center= -2.0D-14,  3.5D-14, -1.0D+00, r^2= 3.8D+00
   Bfn.  Coefficient  Atom+Function         Bfn.  Coefficient  Atom+Function  
  ----- ------------  ---------------      ----- ------------  ---------------
   172      0.338023  13 F  px              186      0.338023  14 F  px        
   175     -0.223308  13 F  px              189     -0.223308  14 F  px        
    18      0.203714   2 N  px              116      0.203714   9 N  px        
    20     -0.169705   2 N  pz              118      0.169705   9 N  pz        
     7     -0.155173   1 B  px                4     -0.154161   1 B  px        

 Vector   46  Occ=2.000000D+00  E=-3.165177D-01  Symmetry=b2
              MO Center=  1.3D-14,  4.6D-16,  6.7D-01, r^2= 5.4D+00
   Bfn.  Coefficient  Atom+Function         Bfn.  Coefficient  Atom+Function  
  ----- ------------  ---------------      ----- ------------  ---------------
    89      0.349542   7 C  py               92      0.231331   7 C  py        
    33     -0.218997   3 C  py              131     -0.218997  10 C  py        
    75      0.196188   6 C  py              103      0.196188   8 C  py        
    47     -0.142410   4 C  py              145     -0.142410  11 C  py        
    36     -0.139673   3 C  py              134     -0.139673  10 C  py        

 Vector   47  Occ=2.000000D+00  E=-2.786092D-01  Symmetry=b2
              MO Center=  1.5D-12,  3.4D-16,  5.1D-01, r^2= 8.1D+00
   Bfn.  Coefficient  Atom+Function         Bfn.  Coefficient  Atom+Function  
  ----- ------------  ---------------      ----- ------------  ---------------
    19      0.250598   2 N  py              117      0.250598   9 N  py        
    61      0.248760   5 C  py              159      0.248760  12 C  py        
    47      0.235552   4 C  py              145      0.235552  11 C  py        
    22     -0.187384   2 N  py              120     -0.187384   9 N  py        
    64      0.178261   5 C  py              162      0.178261  12 C  py        

 Vector   48  Occ=2.000000D+00  E=-2.718175D-01  Symmetry=a2
              MO Center= -1.5D-12,  1.5D-16,  5.5D-01, r^2= 7.8D+00
   Bfn.  Coefficient  Atom+Function         Bfn.  Coefficient  Atom+Function  
  ----- ------------  ---------------      ----- ------------  ---------------
    19      0.270667   2 N  py              117     -0.270667   9 N  py        
    61      0.257545   5 C  py              159     -0.257545  12 C  py        
    47      0.219058   4 C  py              145     -0.219058  11 C  py        
    22     -0.209680   2 N  py              120      0.209680   9 N  py        
    64      0.178495   5 C  py              162     -0.178495  12 C  py        

 Vector   49  Occ=2.000000D+00  E=-2.290585D-01  Symmetry=a2
              MO Center= -6.0D-15,  2.1D-16,  4.2D-01, r^2= 7.0D+00
   Bfn.  Coefficient  Atom+Function         Bfn.  Coefficient  Atom+Function  
  ----- ------------  ---------------      ----- ------------  ---------------
    75      0.296432   6 C  py              103     -0.296432   8 C  py        
    33     -0.259530   3 C  py              131      0.259530  10 C  py        
    78      0.227061   6 C  py              106     -0.227061   8 C  py        
    36     -0.192358   3 C  py              134      0.192358  10 C  py        
    47     -0.184343   4 C  py              145      0.184343  11 C  py        

 Vector   50  Occ=0.000000D+00  E=-1.127733D-01  Symmetry=b2
              MO Center= -4.9D-15, -4.1D-16,  7.5D-01, r^2= 6.6D+00
   Bfn.  Coefficient  Atom+Function         Bfn.  Coefficient  Atom+Function  
  ----- ------------  ---------------      ----- ------------  ---------------
    89      0.366224   7 C  py               92      0.359640   7 C  py        
    33      0.240891   3 C  py              131      0.240891  10 C  py        
    61     -0.231379   5 C  py              159     -0.231379  12 C  py        
    36      0.228344   3 C  py              134      0.228344  10 C  py        
    64     -0.218839   5 C  py              162     -0.218839  12 C  py        

 Vector   51  Occ=0.000000D+00  E= 1.933531D-02  Symmetry=a2
              MO Center=  8.2D-14, -6.6D-16,  2.4D-01, r^2= 6.1D+00
   Bfn.  Coefficient  Atom+Function         Bfn.  Coefficient  Atom+Function  
  ----- ------------  ---------------      ----- ------------  ---------------
    78     -0.370321   6 C  py              106      0.370321   8 C  py        
    22      0.365255   2 N  py              120     -0.365255   9 N  py        
    36     -0.351393   3 C  py              134      0.351393  10 C  py        
    19     -0.283380   2 N  py               75     -0.284614   6 C  py        
   103      0.284614   8 C  py              117      0.283380   9 N  py        

 Vector   52  Occ=0.000000D+00  E= 3.638793D-02  Symmetry=b2
              MO Center= -1.7D-14, -1.4D-17,  1.4D-01, r^2= 9.9D+00
   Bfn.  Coefficient  Atom+Function         Bfn.  Coefficient  Atom+Function  
  ----- ------------  ---------------      ----- ------------  ---------------
    50      0.493370   4 C  py              148      0.493370  11 C  py        
    36     -0.433861   3 C  py              134     -0.433861  10 C  py        
    47      0.300529   4 C  py              145      0.300529  11 C  py        
    33     -0.276222   3 C  py              131     -0.276222  10 C  py        
    64     -0.270105   5 C  py              162     -0.270105  12 C  py        

 Vector   53  Occ=0.000000D+00  E= 5.686910D-02  Symmetry=a2
              MO Center= -6.6D-14, -4.7D-16,  7.5D-01, r^2= 1.0D+01
   Bfn.  Coefficient  Atom+Function         Bfn.  Coefficient  Atom+Function  
  ----- ------------  ---------------      ----- ------------  ---------------
    50      0.506942   4 C  py              148     -0.506942  11 C  py        
    64     -0.478628   5 C  py              162      0.478628  12 C  py        
    36     -0.311368   3 C  py              134      0.311368  10 C  py        
    47      0.289101   4 C  py              145     -0.289101  11 C  py        
    61     -0.279829   5 C  py              159      0.279829  12 C  py        

 Vector   54  Occ=0.000000D+00  E= 7.210230D-02  Symmetry=a1
              MO Center= -1.8D-16,  3.5D-17,  2.6D+00, r^2= 8.8D+00
   Bfn.  Coefficient  Atom+Function         Bfn.  Coefficient  Atom+Function  
  ----- ------------  ---------------      ----- ------------  ---------------
   213      1.511303  18 H  s               208      0.894469  17 H  s         
   228      0.894469  21 H  s                93     -0.850097   7 C  pz        
    87     -0.664835   7 C  s                59     -0.467522   5 C  s         
   157     -0.467522  12 C  s                65     -0.435591   5 C  pz        
   163     -0.435591  12 C  pz              203      0.384105  16 H  s         

 Vector   55  Occ=0.000000D+00  E= 8.616585D-02  Symmetry=b1
              MO Center= -5.5D-13, -1.0D-16,  9.2D-01, r^2= 2.0D+01
   Bfn.  Coefficient  Atom+Function         Bfn.  Coefficient  Atom+Function  
  ----- ------------  ---------------      ----- ------------  ---------------
   208      1.003814  17 H  s               228     -1.003814  21 H  s         
   203      0.919566  16 H  s               223     -0.919566  20 H  s         
[...]
   Bfn.  Coefficient  Atom+Function         Bfn.  Coefficient  Atom+Function  
  ----- ------------  ---------------      ----- ------------  ---------------
     5      1.001506   1 B  py              171      0.887896  13 F  s         
   185     -0.887896  14 F  s                11      0.729028   1 B  d -1      
   179     -0.636493  13 F  d -1            193     -0.636493  14 F  d -1      
   176     -0.556780  13 F  py              190     -0.556780  14 F  py        
   182     -0.455695  13 F  d  2            196      0.455695  14 F  d  2      

 Vector  231  Occ=0.000000D+00  E= 3.767645D+00  Symmetry=a1
              MO Center=  5.9D-11, -8.7D-10, -1.9D+00, r^2= 1.8D+00
   Bfn.  Coefficient  Atom+Function         Bfn.  Coefficient  Atom+Function  
  ----- ------------  ---------------      ----- ------------  ---------------
     2      1.523179   1 B  s               171     -1.021782  13 F  s         
   185     -1.021782  14 F  s                 6      0.666091   1 B  pz        
   179      0.651881  13 F  d -1            193     -0.651881  14 F  d -1      
    14     -0.614381   1 B  d  2            176      0.546403  13 F  py        
   190     -0.546403  14 F  py              177     -0.476260  13 F  pz        


 center of mass
 --------------
 x =   0.00000000 y =   0.00000000 z =  -0.11212105

 moments of inertia (a.u.)
 ------------------
        1409.827819866821           0.000000000000          -0.000000000000
           0.000000000000        3871.028154026096           0.000000000000
          -0.000000000000           0.000000000000        2814.155092523228

     Multipole analysis of the density
     ---------------------------------

     L   x y z        total         alpha         beta         nuclear
     -   - - -        -----         -----         ----         -------
     0   0 0 0      0.000000    -49.000000    -49.000000     98.000000

     1   1 0 0      0.000000      0.000000      0.000000      0.000000
     1   0 1 0     -0.000000     -0.000000     -0.000000      0.000000
     1   0 0 1      1.953626      1.259185      1.259185     -0.564745

     2   2 0 0    -44.668013   -745.590592   -745.590592   1446.513171
     2   1 1 0      0.000000      0.000000      0.000000      0.000000
     2   1 0 1     -0.000000     -0.000000     -0.000000     -0.000000
     2   0 2 0    -63.726294    -73.663941    -73.663941     83.601588
     2   0 1 1      0.000000      0.000000      0.000000      0.000000
     2   0 0 2    -55.070015   -353.115318   -353.115318    651.160621

                                NWChem TDDFT Module
                                -------------------


                         OLED TADF Properties Calculation


            General Information
            -------------------
           No. of orbitals :     462
            Alpha orbitals :     231
             Beta orbitals :     231
        Alpha frozen cores :       0
         Beta frozen cores :       0
     Alpha frozen virtuals :       0
      Beta frozen virtuals :       0
         Spin multiplicity :       1
    Number of AO functions :     231
        Use of symmetry is : off
      Symmetry adaption is : on 
         Schwarz screening :  0.10D-07

              XC Information
              --------------
                  B3LYP Method XC Potential
              Hartree-Fock (Exact) Exchange   0.20          
                 Slater Exchange Functional   0.80 local    
             Becke 1988 Exchange Functional   0.72 non-local
       Lee-Yang-Parr Correlation Functional   0.81          
           VWN I RPA Correlation Functional   0.19 local    

             TDDFT Information
             -----------------
          Calculation type : TDDFT             
         Wavefunction type : Restricted singlets & triplets
          No. of electrons :      98
           Alpha electrons :      49
            Beta electrons :      49
              No. of roots :       5
          Max subspacesize :    5000
            Max iterations :     100
               Target root :       1
           Target symmetry : none
      Symmetry restriction : off
                 Algorithm : Optimal
        Davidson threshold :  0.10D-03

 solvent parameters
 solvname_short: toluene 
 solvname_long:  toluene                            
 dielec:        2.3741
 dielecinf:     2.2383

 solvent accessible surface
 --------------------------

 ---------- ATOMIC COORDINATES (A.U.) ------------ VDWR(ANG.) --
     1    0.00000000    0.00000000   -2.31608214     2.047
     2   -2.36466272    0.00000000   -0.54040708     1.830
     3   -4.79542256    0.00000000   -1.26688970     2.000
     4   -6.39754919    0.00000000    0.87519107     2.000
     5   -4.83302568    0.00000000    2.99261729     2.000
     6   -2.29925811    0.00000000    2.09489157     2.000
     7    0.00000000    0.00000000    3.38024425     2.000
     8    2.29925811    0.00000000    2.09489157     2.000
     9    2.36466272    0.00000000   -0.54040708     1.830
    10    4.79542256    0.00000000   -1.26688970     2.000
    11    6.39754919    0.00000000    0.87519107     2.000
    12    4.83302568    0.00000000    2.99261729     2.000
    13    0.00000000    2.15511779   -3.81043901     1.720
    14    0.00000000   -2.15511779   -3.81043901     1.720
    15   -5.30791987    0.00000000   -3.26093176     1.300
    16   -8.45339009    0.00000000    0.83494371     1.300
    17   -5.39117144    0.00000000    4.97290889     1.300
    18    0.00000000    0.00000000    5.44423753     1.300
    19    5.30791987    0.00000000   -3.26093176     1.300
    20    8.45339009    0.00000000    0.83494371     1.300
    21    5.39117144    0.00000000    4.97290889     1.300
 number of segments per atom =         32
 number of   points per atom =         32
 atom (   nspa,  nppa )
 ----------------------
    1 (      4,     0 )       0
    2 (      8,     0 )       0
    3 (     14,     0 )       0
    4 (     12,     0 )       0
    5 (     16,     0 )       0
    6 (      8,     0 )       0
    7 (     12,     0 )       0
    8 (      8,     0 )       0
    9 (      8,     0 )       0
   10 (     14,     0 )       0
   11 (     12,     0 )       0
   12 (     16,     0 )       0
   13 (     22,     0 )       0
   14 (     22,     0 )       0
   15 (     14,     0 )       0
   16 (     16,     0 )       0
   17 (     14,     0 )       0
   18 (     16,     0 )       0
   19 (     14,     0 )       0
   20 (     16,     0 )       0
   21 (     14,     0 )       0
 number of -cosmo- surface points =      280
 molecular surface =    218.384 angstrom**2
 molecular volume  =    131.486 angstrom**3
 G(cav/disp)       =      1.952 kcal/mol

            Memory Information
            ------------------
          Available GA space size is          26161039 doubles
          Available MA space size is          26061716 doubles
          Length of a trial vector is         8918
          Algorithm : Incore multiple tensor contraction
          Max subspace size reduced from      5000 to      598
          Estimated peak GA usage is          23768920 doubles
          Estimated peak MA usage is             18000 doubles

    5 smallest eigenvalue differences (eV) 
--------------------------------------------------------
  No. Spin  Occ  Vir  Irrep   E(Occ)    E(Vir)   E(Diff)
--------------------------------------------------------
    1    1   49   50 b1       -0.230    -0.115     3.118
    2    1   48   50 b1       -0.271    -0.115     4.230
    3    1   47   50 a1       -0.277    -0.115     4.414
    4    1   46   50 a1       -0.315    -0.115     5.440
    5    1   45   50 a2       -0.350    -0.115     6.386
--------------------------------------------------------

  Entering Davidson iterations
  Restricted singlet excited states

  Iter   NTrls   NConv    DeltaV     DeltaE      Time   
  ----  ------  ------  ---------  ---------  --------- 
    1      5       0     0.35E+00   0.10+100      284.2
    2     15       0     0.17E+00   0.37E-01      492.2
    3     25       0     0.41E-01   0.53E-02      473.0
    4     35       0     0.12E-01   0.81E-03      482.3
    5     45       0     0.32E-02   0.10E-03      485.0
    6     55       0     0.97E-03   0.57E-05      485.6
    7     62       4     0.29E-03   0.54E-06      376.9
    8     64       5     0.92E-04   0.32E-07      183.3
  ----  ------  ------  ---------  ---------  --------- 
  Convergence criterion met

  Ground state a1       -680.939608574355 a.u.

  ----------------------------------------------------------------------------
  Root   1 singlet b1             0.116096655 a.u.                3.1592 eV 
  ----------------------------------------------------------------------------
     Transition Moments    X  2.16078   Y  0.00000   Z  0.00000
     Transition Moments   XX -0.00000  XY -0.00000  XZ -0.46749
     Transition Moments   YY -0.00000  YZ  0.00000  ZZ -0.00000
     Dipole Oscillator Strength                    0.3613675338
     Electric Quadrupole                           0.0000000018
     Magnetic Dipole                               0.0000036669
     Total Oscillator Strength                     0.3613712025

     Occ.   48  a2  ---  Virt.   50  b2   0.42497 X
     Occ.   48  a2  ---  Virt.   52  b2  -0.06255 X
     Occ.   49  a2  ---  Virt.   50  b2  -0.91232 X
     Occ.   49  a2  ---  Virt.   50  b2   0.16098 Y
  ----------------------------------------------------------------------------
  Root   2 singlet b1             0.135001025 a.u.                3.6736 eV 
  ----------------------------------------------------------------------------
     Transition Moments    X -1.63688   Y  0.00000   Z  0.00000
     Transition Moments   XX  0.00000  XY -0.00000  XZ -2.70300
     Transition Moments   YY -0.00000  YZ  0.00000  ZZ  0.00000
     Dipole Oscillator Strength                    0.2411466021
     Electric Quadrupole                           0.0000000957
     Magnetic Dipole                               0.0000000110
     Total Oscillator Strength                     0.2411467088

     Occ.   47  b2  ---  Virt.   51  a2   0.05231 X
     Occ.   48  a2  ---  Virt.   50  b2   0.90185 X
     Occ.   48  a2  ---  Virt.   50  b2  -0.05748 Y
     Occ.   48  a2  ---  Virt.   57  b2  -0.05222 X
     Occ.   49  a2  ---  Virt.   50  b2   0.43473 X
     Occ.   49  a2  ---  Virt.   50  b2  -0.10594 Y
     Occ.   49  a2  ---  Virt.   52  b2  -0.05185 X
  ----------------------------------------------------------------------------
  Root   3 singlet a1             0.139114246 a.u.                3.7855 eV 
  ----------------------------------------------------------------------------
     Transition Moments    X  0.00000   Y  0.00000   Z  0.55728
     Transition Moments   XX  0.51923  XY -0.00000  XZ -0.00000
     Transition Moments   YY -0.02053  YZ  0.00000  ZZ  1.36672
     Dipole Oscillator Strength                    0.0288019811
     Electric Quadrupole                           0.0000000070
     Magnetic Dipole                               0.0000000000
     Total Oscillator Strength                     0.0288019881

     Occ.   47  b2  ---  Virt.   50  b2   0.99374 X
     Occ.   47  b2  ---  Virt.   57  b2  -0.05790 X
     Occ.   48  a2  ---  Virt.   53  a2  -0.05041 X
  ----------------------------------------------------------------------------
  Root   4 singlet a1             0.192341333 a.u.                5.2339 eV 
  ----------------------------------------------------------------------------
     Transition Moments    X  0.00000   Y  0.00000   Z  0.54132
     Transition Moments   XX -4.70318  XY -0.00000  XZ -0.00000
     Transition Moments   YY -0.00556  YZ  0.00000  ZZ  2.20874
     Dipole Oscillator Strength                    0.0375746344
     Electric Quadrupole                           0.0000004720
     Magnetic Dipole                               0.0000000000
     Total Oscillator Strength                     0.0375751064

     Occ.   44  b2  ---  Virt.   50  b2   0.09024 X
     Occ.   46  b2  ---  Virt.   50  b2  -0.91962 X
     Occ.   46  b2  ---  Virt.   50  b2   0.06740 Y
     Occ.   47  b2  ---  Virt.   52  b2  -0.07153 X
     Occ.   48  a2  ---  Virt.   51  a2  -0.07432 X
     Occ.   48  a2  ---  Virt.   53  a2  -0.05581 X
     Occ.   49  a2  ---  Virt.   51  a2  -0.35846 X
  ----------------------------------------------------------------------------
  Root   5 singlet a2             0.198533283 a.u.                5.4024 eV 
  ----------------------------------------------------------------------------
     Transition Moments    X  0.00000   Y  0.00000   Z -0.00000
     Transition Moments   XX  0.00000  XY  0.00932  XZ  0.00000
     Transition Moments   YY  0.00000  YZ -0.00000  ZZ  0.00000
     Dipole Oscillator Strength                    0.0000000000
     Electric Quadrupole                           0.0000000000
     Magnetic Dipole                               0.0000002410
     Total Oscillator Strength                     0.0000002410

     Occ.   41  b1  ---  Virt.   50  b2   0.05346 X
     Occ.   45  b1  ---  Virt.   50  b2  -0.99589 X

              Target root =      1
          Target symmetry = none
      Ground state energy =   -680.939608574355
        Excitation energy =      0.116096654643
     Excited state energy =   -680.823511919712

  stored tddft:energy   -680.82351191971179     

    5 smallest eigenvalue differences (eV) 
--------------------------------------------------------
  No. Spin  Occ  Vir  Irrep   E(Occ)    E(Vir)   E(Diff)
--------------------------------------------------------
    1    1   49   50 b1       -0.230    -0.115     3.118
    2    1   48   50 b1       -0.271    -0.115     4.230
    3    1   47   50 a1       -0.277    -0.115     4.414
    4    1   46   50 a1       -0.315    -0.115     5.440
    5    1   45   50 a2       -0.350    -0.115     6.386
--------------------------------------------------------

  Entering Davidson iterations
  Restricted triplet excited states

  Iter   NTrls   NConv    DeltaV     DeltaE      Time   
  ----  ------  ------  ---------  ---------  --------- 
    1      5       0     0.82E-01   0.10+100      288.3
    2     15       0     0.18E-01   0.84E-02      486.7
    3     25       0     0.52E-02   0.39E-03      433.8
    4     35       0     0.73E-01   0.91E-02      439.8
    5     45       2     0.13E-01   0.63E-02      451.4
    6     51       4     0.31E-02   0.12E-03      312.3
    7     53       4     0.93E-03   0.69E-05      155.1
    8     55       4     0.23E-03   0.51E-06      161.6
    9     57       5     0.99E-04   0.32E-07      157.8
  ----  ------  ------  ---------  ---------  --------- 
  Convergence criterion met

  Ground state a1       -680.939608574355 a.u.

  ----------------------------------------------------------------------------
  Root   1 triplet b1             0.058759473 a.u.                1.5989 eV 
  ----------------------------------------------------------------------------
     Transition Moments                    Spin forbidden
     Oscillator Strength                   Spin forbidden

     Occ.   46  b2  ---  Virt.   51  a2   0.06897 X
     Occ.   48  a2  ---  Virt.   50  b2  -0.13804 X
     Occ.   49  a2  ---  Virt.   50  b2  -1.00139 X
     Occ.   49  a2  ---  Virt.   50  b2  -0.16166 Y
  ----------------------------------------------------------------------------
  Root   2 triplet b1             0.100303928 a.u.                2.7294 eV 
  ----------------------------------------------------------------------------
     Transition Moments                    Spin forbidden
     Oscillator Strength                   Spin forbidden

     Occ.   47  b2  ---  Virt.   51  a2  -0.11978 X
     Occ.   47  b2  ---  Virt.   53  a2   0.09984 X
     Occ.   48  a2  ---  Virt.   50  b2   0.97733 X
     Occ.   48  a2  ---  Virt.   50  b2   0.07713 Y
     Occ.   48  a2  ---  Virt.   57  b2   0.05975 X
     Occ.   49  a2  ---  Virt.   50  b2  -0.13742 X
  ----------------------------------------------------------------------------
  Root   3 triplet a1             0.107618134 a.u.                2.9284 eV 
  ----------------------------------------------------------------------------
     Transition Moments                    Spin forbidden
     Oscillator Strength                   Spin forbidden

     Occ.   46  b2  ---  Virt.   50  b2  -0.11094 X
     Occ.   47  b2  ---  Virt.   50  b2  -0.97487 X
     Occ.   47  b2  ---  Virt.   50  b2  -0.07268 Y
     Occ.   47  b2  ---  Virt.   57  b2  -0.06103 X
     Occ.   48  a2  ---  Virt.   51  a2   0.14208 X
     Occ.   48  a2  ---  Virt.   53  a2  -0.10685 X
     Occ.   49  a2  ---  Virt.   51  a2   0.05193 X
  ----------------------------------------------------------------------------
  Root   4 triplet a1             0.130252102 a.u.                3.5443 eV 
  ----------------------------------------------------------------------------
     Transition Moments                    Spin forbidden
     Oscillator Strength                   Spin forbidden

     Occ.   44  b2  ---  Virt.   50  b2  -0.05771 X
     Occ.   46  b2  ---  Virt.   50  b2  -0.97807 X
     Occ.   46  b2  ---  Virt.   50  b2  -0.10547 Y
     Occ.   46  b2  ---  Virt.   57  b2   0.07923 X
     Occ.   47  b2  ---  Virt.   50  b2   0.12261 X
     Occ.   49  a2  ---  Virt.   51  a2   0.13667 X
  ----------------------------------------------------------------------------
  Root   5 triplet a1             0.178623437 a.u.                4.8606 eV 
  ----------------------------------------------------------------------------
     Transition Moments                    Spin forbidden
     Oscillator Strength                   Spin forbidden

     Occ.   36  b2  ---  Virt.   50  b2  -0.05212 X
     Occ.   36  b2  ---  Virt.   57  b2   0.05657 X
     Occ.   37  a2  ---  Virt.   53  a2  -0.05909 X
     Occ.   46  b2  ---  Virt.   50  b2  -0.12137 X
     Occ.   46  b2  ---  Virt.   52  b2  -0.15619 X
     Occ.   46  b2  ---  Virt.   57  b2   0.10275 X
     Occ.   47  b2  ---  Virt.   50  b2  -0.06200 X
     Occ.   47  b2  ---  Virt.   52  b2   0.13188 X
     Occ.   48  a2  ---  Virt.   53  a2   0.11377 X
     Occ.   49  a2  ---  Virt.   51  a2  -0.95252 X
     Occ.   49  a2  ---  Virt.   51  a2  -0.06657 Y

              Target root =      1
          Target symmetry = none
      Ground state energy =   -680.939608574355
        Excitation energy =      0.058759473294
     Excited state energy =   -680.880849101061

  stored tddft:energy   -680.88084910106056     

 Task  times  cpu:    13073.9s     wall:     6751.4s


                                NWChem Input Module
                                -------------------


 ------------------------------------------------------------------------
 input_parse: unknown directive for                                                                                                                                                                                                                                                                               0
 ------------------------------------------------------------------------
 ------------------------------------------------------------------------
  current input line : 
    75:  for plotting molecular orbitals
 ------------------------------------------------------------------------
 ------------------------------------------------------------------------
 There is an error in the input file
 ------------------------------------------------------------------------
 For more information see the NWChem manual at https://github.com/nwchemgit/nwchem/wiki


 For further details see manual section:                                                                                                                                                                                                                                                                
