 argument  1 = BODIPY0.nw
                                         
                                         


             Northwest Computational Chemistry Package (NWChem) 7.0.2
             --------------------------------------------------------


                    Environmental Molecular Sciences Laboratory
                       Pacific Northwest National Laboratory
                                Richland, WA 99352

                              Copyright (c) 1994-2020
                       Pacific Northwest National Laboratory
                            Battelle Memorial Institute

             NWChem is an open-source computational chemistry package
                        distributed under the terms of the
                      Educational Community License (ECL) 2.0
             A copy of the license is included with this distribution
                              in the LICENSE.TXT file

                                  ACKNOWLEDGMENT
                                  --------------

            This software and its documentation were developed at the
            EMSL at Pacific Northwest National Laboratory, a multiprogram
            national laboratory, operated for the U.S. Department of Energy
            by Battelle under Contract Number DE-AC05-76RL01830. Support
            for this work was provided by the Department of Energy Office
            of Biological and Environmental Research, Office of Basic
            Energy Sciences, and the Office of Advanced Scientific Computing.


           Job information
           ---------------

    hostname        = taamangtchu-Aspire-A515-45
    program         = nwchem
    date            = Fri Jun 28 15:09:41 2024

    compiled        = Sat_Apr_09_17:12:10_2022
    source          = /build/nwchem-f1f4gx/nwchem-7.0.2/build-openmpi
    nwchem branch   = 7.0.2
    nwchem revision = N/A
    ga revision     = 5.8.1
    use scalapack   = T
    input           = BODIPY0.nw
    prefix          = molecule_BODIPY.
    data base       = ./molecule_BODIPY.db
    status          = startup
    nproc           =        1
    time left       =     -1s



           Memory information
           ------------------

    heap     =   13107194 doubles =    100.0 Mbytes
    stack    =   13107199 doubles =    100.0 Mbytes
    global   =   26214400 doubles =    200.0 Mbytes (distinct from heap & stack)
    total    =   52428793 doubles =    400.0 Mbytes
    verify   = yes
    hardfail = no 


           Directory information
           ---------------------

  0 permanent = .
  0 scratch   = .




                                NWChem Input Module
                                -------------------



 Scaling coordinates for geometry "geometry" by  1.889725989
 (inverse scale =  0.529177249)

 C2V symmetry detected

          ------
          auto-z
          ------
  no constraints, skipping    0.0000000000000000     
  no constraints, skipping    0.0000000000000000     


                             Geometry "geometry" -> ""
                             -------------------------

 Output coordinates in angstroms (scale by  1.889725989 to convert to a.u.)

  No.       Tag          Charge          X              Y              Z
 ---- ---------------- ---------- -------------- -------------- --------------
    1 B                    5.0000     0.00000000     0.00000000    -1.20497613
    2 N                    7.0000    -1.24626844     0.00000000    -0.28286786
    3 C                    6.0000    -2.51744577     0.00000000    -0.66111573
    4 C                    6.0000    -3.35664520     0.00000000     0.46264423
    5 C                    6.0000    -2.54025760     0.00000000     1.57003212
    6 C                    6.0000    -1.20534094     0.00000000     1.09629644
    7 C                    6.0000     0.00000000     0.00000000     1.77905966
    8 C                    6.0000     1.20534094     0.00000000     1.09629644
    9 N                    7.0000     1.24626844     0.00000000    -0.28286786
   10 C                    6.0000     2.51744577     0.00000000    -0.66111573
   11 C                    6.0000     3.35664520     0.00000000     0.46264423
   12 C                    6.0000     2.54025760     0.00000000     1.57003212
   13 F                    9.0000     0.00000000     1.12949751    -1.99151791
   14 F                    9.0000     0.00000000    -1.12949751    -1.99151791
   15 H                    1.0000    -2.78195252     0.00000000    -1.70126847
   16 H                    1.0000    -4.42834727     0.00000000     0.44151755
   17 H                    1.0000    -2.83067448     0.00000000     2.60227169
   18 H                    1.0000     0.00000000     0.00000000     2.85866882
   19 H                    1.0000     2.78195252     0.00000000    -1.70126847
   20 H                    1.0000     4.42834727     0.00000000     0.44151755
   21 H                    1.0000     2.83067448     0.00000000     2.60227169

      Atomic Mass 
      ----------- 

      B                 11.009310
      N                 14.003070
      C                 12.000000
      F                 18.998400
      H                  1.007825


 Effective nuclear repulsion energy (a.u.)     866.7103892197

            Nuclear Dipole moment (a.u.) 
            ----------------------------
        X                 Y               Z
 ---------------- ---------------- ----------------
    -0.0000000000     0.0000000000    -0.0000000000

      Symmetry information
      --------------------

 Group name             C2v       
 Group number             16
 Group order               4
 No. of unique centers    12

      Symmetry unique atoms

     1    2    3    4    5    6    7   13   15   16   17   18



                                Z-matrix (autoz)
                                -------- 

 Units are Angstrom for bonds and degrees for angles

      Type          Name      I     J     K     L     M      Value
      ----------- --------  ----- ----- ----- ----- ----- ----------
    1 Stretch                  1     2                       1.55031
    2 Stretch                  1     9                       1.55031
    3 Stretch                  1    13                       1.37638
    4 Stretch                  1    14                       1.37638
    5 Stretch                  2     3                       1.32626
    6 Stretch                  2     6                       1.37977
    7 Stretch                  3     4                       1.40253
    8 Stretch                  3    15                       1.07326
    9 Stretch                  4     5                       1.37579
   10 Stretch                  4    16                       1.07191
   11 Stretch                  5     6                       1.41648
   12 Stretch                  5    17                       1.07232
   13 Stretch                  6     7                       1.38528
   14 Stretch                  7     8                       1.38528
   15 Stretch                  7    18                       1.07961
   16 Stretch                  8     9                       1.37977
   17 Stretch                  8    12                       1.41648
   18 Stretch                  9    10                       1.32626
   19 Stretch                 10    11                       1.40253
   20 Stretch                 10    19                       1.07326
   21 Stretch                 11    12                       1.37579
   22 Stretch                 11    20                       1.07191
   23 Stretch                 12    21                       1.07232
   24 Bend                     1     2     3               126.93168
   25 Bend                     1     2     6               124.79778
   26 Bend                     1     9     8               124.79778
   27 Bend                     1     9    10               126.93168
   28 Bend                     2     1     9               107.00486
   29 Bend                     2     1    13               109.87059
   30 Bend                     2     1    14               109.87059
   31 Bend                     2     3     4               110.18082
   32 Bend                     2     3    15               120.83842
   33 Bend                     2     6     5               107.83899
   34 Bend                     2     6     7               121.22909
   35 Bend                     3     2     6               108.27054
   36 Bend                     3     4     5               106.85008
   37 Bend                     3     4    16               125.62224
   38 Bend                     4     3    15               128.98075
   39 Bend                     4     5     6               106.85958
   40 Bend                     4     5    17               127.88789
   41 Bend                     5     4    16               127.52769
   42 Bend                     5     6     7               130.93192
   43 Bend                     6     5    17               125.25253
   44 Bend                     6     7     8               120.94139
   45 Bend                     6     7    18               119.52931
   46 Bend                     7     8     9               121.22909
   47 Bend                     7     8    12               130.93192
   48 Bend                     8     7    18               119.52931
   49 Bend                     8     9    10               108.27054
   50 Bend                     8    12    11               106.85958
   51 Bend                     8    12    21               125.25253
   52 Bend                     9     1    13               109.87059
   53 Bend                     9     1    14               109.87059
   54 Bend                     9     8    12               107.83899
   55 Bend                     9    10    11               110.18082
   56 Bend                     9    10    19               120.83842
   57 Bend                    10    11    12               106.85008
   58 Bend                    10    11    20               125.62224
   59 Bend                    11    10    19               128.98075
   60 Bend                    11    12    21               127.88789
   61 Bend                    12    11    20               127.52769
   62 Bend                    13     1    14               110.29605
   63 Torsion                  1     2     3     4         180.00000
   64 Torsion                  1     2     3    15           0.00000
   65 Torsion                  1     2     6     5         180.00000
   66 Torsion                  1     2     6     7           0.00000
   67 Torsion                  1     9     8     7           0.00000
   68 Torsion                  1     9     8    12         180.00000
   69 Torsion                  1     9    10    11         180.00000
   70 Torsion                  1     9    10    19           0.00000
   71 Torsion                  2     1     9     8           0.00000
   72 Torsion                  2     1     9    10         180.00000
   73 Torsion                  2     3     4     5           0.00000
   74 Torsion                  2     3     4    16         180.00000
   75 Torsion                  2     6     5     4          -0.00000
   76 Torsion                  2     6     5    17         180.00000
   77 Torsion                  2     6     7     8           0.00000
   78 Torsion                  2     6     7    18         180.00000
   79 Torsion                  3     2     1     9         180.00000
   80 Torsion                  3     2     1    13          60.76012
   81 Torsion                  3     2     1    14         -60.76012
   82 Torsion                  3     2     6     5           0.00000
   83 Torsion                  3     2     6     7         180.00000
   84 Torsion                  3     4     5     6           0.00000
   85 Torsion                  3     4     5    17         180.00000
   86 Torsion                  4     3     2     6           0.00000
   87 Torsion                  4     5     6     7         180.00000
   88 Torsion                  5     4     3    15         180.00000
   89 Torsion                  5     6     7     8         180.00000
   90 Torsion                  5     6     7    18           0.00000
   91 Torsion                  6     2     1     9          -0.00000
   92 Torsion                  6     2     1    13        -119.23988
   93 Torsion                  6     2     1    14         119.23988
   94 Torsion                  6     2     3    15         180.00000
   95 Torsion                  6     5     4    16         180.00000
   96 Torsion                  6     7     8     9           0.00000
   97 Torsion                  6     7     8    12         180.00000
   98 Torsion                  7     6     5    17           0.00000
   99 Torsion                  7     8     9    10         180.00000
  100 Torsion                  7     8    12    11         180.00000
  101 Torsion                  7     8    12    21           0.00000
  102 Torsion                  8     9     1    13         119.23988
  103 Torsion                  8     9     1    14        -119.23988
  104 Torsion                  8     9    10    11           0.00000
  105 Torsion                  8     9    10    19         180.00000
  106 Torsion                  8    12    11    10           0.00000
  107 Torsion                  8    12    11    20         180.00000
  108 Torsion                  9     8     7    18         180.00000
  109 Torsion                  9     8    12    11           0.00000
  110 Torsion                  9     8    12    21         180.00000
  111 Torsion                  9    10    11    12           0.00000
  112 Torsion                  9    10    11    20         180.00000
  113 Torsion                 10     9     1    13         -60.76012
  114 Torsion                 10     9     1    14          60.76012
  115 Torsion                 10     9     8    12           0.00000
  116 Torsion                 10    11    12    21         180.00000
  117 Torsion                 12     8     7    18           0.00000
  118 Torsion                 12    11    10    19         180.00000
  119 Torsion                 15     3     4    16          -0.00000
  120 Torsion                 16     4     5    17           0.00000
  121 Torsion                 19    10    11    20           0.00000
  122 Torsion                 20    11    12    21           0.00000


            XYZ format geometry
            -------------------
    21
 geometry
 B                     0.00000000     0.00000000    -1.20497613
 N                    -1.24626844     0.00000000    -0.28286786
 C                    -2.51744577     0.00000000    -0.66111573
 C                    -3.35664520     0.00000000     0.46264423
 C                    -2.54025760     0.00000000     1.57003212
 C                    -1.20534094     0.00000000     1.09629644
 C                     0.00000000     0.00000000     1.77905966
 C                     1.20534094     0.00000000     1.09629644
 N                     1.24626844     0.00000000    -0.28286786
 C                     2.51744577     0.00000000    -0.66111573
 C                     3.35664520     0.00000000     0.46264423
 C                     2.54025760     0.00000000     1.57003212
 F                     0.00000000     1.12949751    -1.99151791
 F                     0.00000000    -1.12949751    -1.99151791
 H                    -2.78195252     0.00000000    -1.70126847
 H                    -4.42834727     0.00000000     0.44151755
 H                    -2.83067448     0.00000000     2.60227169
 H                     0.00000000     0.00000000     2.85866882
 H                     2.78195252     0.00000000    -1.70126847
 H                     4.42834727     0.00000000     0.44151755
 H                     2.83067448     0.00000000     2.60227169

 ==============================================================================
                                internuclear distances
 ------------------------------------------------------------------------------
       center one      |      center two      | atomic units |  angstroms
 ------------------------------------------------------------------------------
    2 N                |   1 B                |     2.92967  |     1.55031
    3 C                |   2 N                |     2.50627  |     1.32626
    4 C                |   3 C                |     2.65040  |     1.40253
    5 C                |   4 C                |     2.59987  |     1.37579
    6 C                |   2 N                |     2.60739  |     1.37977
    6 C                |   5 C                |     2.67677  |     1.41648
    7 C                |   6 C                |     2.61781  |     1.38528
    8 C                |   7 C                |     2.61781  |     1.38528
    9 N                |   1 B                |     2.92967  |     1.55031
    9 N                |   8 C                |     2.60739  |     1.37977
   10 C                |   9 N                |     2.50627  |     1.32626
   11 C                |  10 C                |     2.65040  |     1.40253
   12 C                |   8 C                |     2.67677  |     1.41648
   12 C                |  11 C                |     2.59987  |     1.37579
   13 F                |   1 B                |     2.60097  |     1.37638
   14 F                |   1 B                |     2.60097  |     1.37638
   15 H                |   3 C                |     2.02816  |     1.07326
   16 H                |   4 C                |     2.02562  |     1.07191
   17 H                |   5 C                |     2.02638  |     1.07232
   18 H                |   7 C                |     2.04017  |     1.07961
   19 H                |  10 C                |     2.02816  |     1.07326
   20 H                |  11 C                |     2.02562  |     1.07191
   21 H                |  12 C                |     2.02638  |     1.07232
 ------------------------------------------------------------------------------
                         number of included internuclear distances:         23
 ==============================================================================



 ==============================================================================
                                 internuclear angles
 ------------------------------------------------------------------------------
        center 1       |       center 2       |       center 3       |  degrees
 ------------------------------------------------------------------------------
    2 N                |   1 B                |   9 N                |   107.00
    2 N                |   1 B                |  13 F                |   109.87
    2 N                |   1 B                |  14 F                |   109.87
    9 N                |   1 B                |  13 F                |   109.87
    9 N                |   1 B                |  14 F                |   109.87
   13 F                |   1 B                |  14 F                |   110.30
    1 B                |   2 N                |   3 C                |   126.93
    1 B                |   2 N                |   6 C                |   124.80
    3 C                |   2 N                |   6 C                |   108.27
    2 N                |   3 C                |   4 C                |   110.18
    2 N                |   3 C                |  15 H                |   120.84
    4 C                |   3 C                |  15 H                |   128.98
    3 C                |   4 C                |   5 C                |   106.85
    3 C                |   4 C                |  16 H                |   125.62
    5 C                |   4 C                |  16 H                |   127.53
    4 C                |   5 C                |   6 C                |   106.86
    4 C                |   5 C                |  17 H                |   127.89
    6 C                |   5 C                |  17 H                |   125.25
    2 N                |   6 C                |   5 C                |   107.84
    2 N                |   6 C                |   7 C                |   121.23
    5 C                |   6 C                |   7 C                |   130.93
    6 C                |   7 C                |   8 C                |   120.94
    6 C                |   7 C                |  18 H                |   119.53
    8 C                |   7 C                |  18 H                |   119.53
    7 C                |   8 C                |   9 N                |   121.23
    7 C                |   8 C                |  12 C                |   130.93
    9 N                |   8 C                |  12 C                |   107.84
    1 B                |   9 N                |   8 C                |   124.80
    1 B                |   9 N                |  10 C                |   126.93
    8 C                |   9 N                |  10 C                |   108.27
    9 N                |  10 C                |  11 C                |   110.18
    9 N                |  10 C                |  19 H                |   120.84
   11 C                |  10 C                |  19 H                |   128.98
   10 C                |  11 C                |  12 C                |   106.85
   10 C                |  11 C                |  20 H                |   125.62
   12 C                |  11 C                |  20 H                |   127.53
    8 C                |  12 C                |  11 C                |   106.86
    8 C                |  12 C                |  21 H                |   125.25
   11 C                |  12 C                |  21 H                |   127.89
 ------------------------------------------------------------------------------
                            number of included internuclear angles:         39
 ==============================================================================





 Summary of "ao basis" -> "" (cartesian)
 ------------------------------------------------------------------------------
       Tag                 Description            Shells   Functions and Types
 ---------------- ------------------------------  ------  ---------------------
 *                           6-31G*                   on all atoms 


  pbe96 is a nonlocal functional; adding pw91lda local functional. 


                           NWChem Geometry Optimization
                           ----------------------------


  no constraints, skipping    0.0000000000000000     
 maximum gradient threshold         (gmax) =   0.000450
 rms gradient threshold             (grms) =   0.000300
 maximum cartesian step threshold   (xmax) =   0.001800
 rms cartesian step threshold       (xrms) =   0.001200
 fixed trust radius                (trust) =   0.300000
 maximum step size to saddle      (sadstp) =   0.100000
 energy precision                  (eprec) =   5.0D-06
 maximum number of steps          (nptopt) =  200
 initial hessian option           (inhess) =    0
 line search option               (linopt) =    1
 hessian update option            (modupd) =    1
 saddle point option              (modsad) =    0
 initial eigen-mode to follow     (moddir) =    0
 initial variable to follow       (vardir) =    0
 follow first negative mode     (firstneg) =    T
 apply conjugacy                    (opcg) =    F
 source of zmatrix                         =   autoz   


          -------------------
          Energy Minimization
          -------------------


 Names of Z-matrix variables 
    1              2              3              4              5         
    6              7              8              9             10         
   11             12             13             14             15         
   16             17             18             19             20         
   21             22             23             24             25         
   26             27             28             29             30         
   31             32             33             34             35         
   36             37             38             39             40         
   41             42             43             44             45         
   46             47             48             49             50         
   51             52             53             54             55         
   56             57             58             59             60         
   61             62             63             64             65         
   66             67             68             69             70         
   71             72             73             74             75         
   76             77             78             79             80         
   81             82             83             84             85         
   86             87             88             89             90         
   91             92             93             94             95         
   96             97             98             99            100         
  101            102            103            104            105         
  106            107            108            109            110         
  111            112            113            114            115         
  116            117            118            119            120         
  121            122         

 Variables with the same non-blank name are constrained to be equal


 Using diagonal initial Hessian 
 Scaling for Hessian diagonals: bonds = 1.00  angles = 0.25  torsions = 0.10

          --------
          Step   0
          --------


                         Geometry "geometry" -> "geometry"
                         ---------------------------------

 Output coordinates in angstroms (scale by  1.889725989 to convert to a.u.)

  No.       Tag          Charge          X              Y              Z
 ---- ---------------- ---------- -------------- -------------- --------------
    1 B                    5.0000     0.00000000     0.00000000    -1.20497613
    2 N                    7.0000    -1.24626844     0.00000000    -0.28286786
    3 C                    6.0000    -2.51744577     0.00000000    -0.66111573
    4 C                    6.0000    -3.35664520     0.00000000     0.46264423
    5 C                    6.0000    -2.54025760     0.00000000     1.57003212
    6 C                    6.0000    -1.20534094     0.00000000     1.09629644
    7 C                    6.0000     0.00000000     0.00000000     1.77905966
    8 C                    6.0000     1.20534094     0.00000000     1.09629644
    9 N                    7.0000     1.24626844     0.00000000    -0.28286786
   10 C                    6.0000     2.51744577     0.00000000    -0.66111573
   11 C                    6.0000     3.35664520     0.00000000     0.46264423
   12 C                    6.0000     2.54025760     0.00000000     1.57003212
   13 F                    9.0000     0.00000000     1.12949751    -1.99151791
   14 F                    9.0000     0.00000000    -1.12949751    -1.99151791
   15 H                    1.0000    -2.78195252     0.00000000    -1.70126847
   16 H                    1.0000    -4.42834727     0.00000000     0.44151755
   17 H                    1.0000    -2.83067448     0.00000000     2.60227169
   18 H                    1.0000     0.00000000     0.00000000     2.85866882
   19 H                    1.0000     2.78195252     0.00000000    -1.70126847
   20 H                    1.0000     4.42834727     0.00000000     0.44151755
   21 H                    1.0000     2.83067448     0.00000000     2.60227169

      Atomic Mass 
      ----------- 

      B                 11.009310
      N                 14.003070
      C                 12.000000
      F                 18.998400
      H                  1.007825


 Effective nuclear repulsion energy (a.u.)     866.7103892197

            Nuclear Dipole moment (a.u.) 
            ----------------------------
        X                 Y               Z
 ---------------- ---------------- ----------------
    -0.0000000000     0.0000000000    -0.0000000000

      Symmetry information
      --------------------

 Group name             C2v       
 Group number             16
 Group order               4
 No. of unique centers    12

      Symmetry unique atoms

     1    2    3    4    5    6    7   13   15   16   17   18


                                 NWChem DFT Module
                                 -----------------


                      Basis "ao basis" -> "ao basis" (cartesian)
                      -----
  B (Boron)
  ---------
            Exponent  Coefficients 
       -------------- ---------------------------------------------------------
  1 S  2.06888230E+03  0.001866
  1 S  3.10649570E+02  0.014252
  1 S  7.06830330E+01  0.069552
  1 S  1.98610800E+01  0.232573
  1 S  6.29930480E+00  0.467079
  1 S  2.12702700E+00  0.363431

  2 S  4.72797100E+00 -0.130394
  2 S  1.19033770E+00 -0.130789
  2 S  3.59411700E-01  1.130944

  3 P  4.72797100E+00  0.074598
  3 P  1.19033770E+00  0.307847
  3 P  3.59411700E-01  0.743457

  4 S  1.26751200E-01  1.000000

  5 P  1.26751200E-01  1.000000

  6 D  6.00000000E-01  1.000000

  N (Nitrogen)
  ------------
            Exponent  Coefficients 
       -------------- ---------------------------------------------------------
  1 S  4.17351100E+03  0.001835
  1 S  6.27457900E+02  0.013995
  1 S  1.42902100E+02  0.068587
  1 S  4.02343300E+01  0.232241
  1 S  1.28202100E+01  0.469070
  1 S  4.39043700E+00  0.360455

  2 S  1.16263580E+01 -0.114961
  2 S  2.71628000E+00 -0.169118
  2 S  7.72218000E-01  1.145852

  3 P  1.16263580E+01  0.067580
  3 P  2.71628000E+00  0.323907
  3 P  7.72218000E-01  0.740895

  4 S  2.12031300E-01  1.000000

  5 P  2.12031300E-01  1.000000

  6 D  8.00000000E-01  1.000000

  C (Carbon)
  ----------
            Exponent  Coefficients 
       -------------- ---------------------------------------------------------
  1 S  3.04752490E+03  0.001835
  1 S  4.57369510E+02  0.014037
  1 S  1.03948690E+02  0.068843
  1 S  2.92101550E+01  0.232184
  1 S  9.28666300E+00  0.467941
  1 S  3.16392700E+00  0.362312

  2 S  7.86827240E+00 -0.119332
  2 S  1.88128850E+00 -0.160854
  2 S  5.44249300E-01  1.143456

  3 P  7.86827240E+00  0.068999
  3 P  1.88128850E+00  0.316424
  3 P  5.44249300E-01  0.744308

  4 S  1.68714400E-01  1.000000

  5 P  1.68714400E-01  1.000000

  6 D  8.00000000E-01  1.000000

  F (Fluorine)
  ------------
            Exponent  Coefficients 
       -------------- ---------------------------------------------------------
  1 S  7.00171309E+03  0.001820
  1 S  1.05136609E+03  0.013916
  1 S  2.39285690E+02  0.068405
  1 S  6.73974453E+01  0.233186
  1 S  2.15199573E+01  0.471267
  1 S  7.40310130E+00  0.356619

  2 S  2.08479528E+01 -0.108507
  2 S  4.80830834E+00 -0.146452
  2 S  1.34406986E+00  1.128689

  3 P  2.08479528E+01  0.071629
  3 P  4.80830834E+00  0.345912
  3 P  1.34406986E+00  0.722470

  4 S  3.58151393E-01  1.000000

  5 P  3.58151393E-01  1.000000

  6 D  8.00000000E-01  1.000000

  H (Hydrogen)
  ------------
            Exponent  Coefficients 
       -------------- ---------------------------------------------------------
  1 S  1.87311370E+01  0.033495
  1 S  2.82539370E+00  0.234727
  1 S  6.40121700E-01  0.813757

  2 S  1.61277800E-01  1.000000



 Summary of "ao basis" -> "ao basis" (cartesian)
 ------------------------------------------------------------------------------
       Tag                 Description            Shells   Functions and Types
 ---------------- ------------------------------  ------  ---------------------
 B                           6-31G*                  6       15   3s2p1d
 N                           6-31G*                  6       15   3s2p1d
 C                           6-31G*                  6       15   3s2p1d
 F                           6-31G*                  6       15   3s2p1d
 H                           6-31G*                  2        2   2s




 Summary of "ao basis" -> "ao basis" (cartesian)
 ------------------------------------------------------------------------------
       Tag                 Description            Shells   Functions and Types
 ---------------- ------------------------------  ------  ---------------------
 B                           6-31G*                  6       15   3s2p1d
 N                           6-31G*                  6       15   3s2p1d
 C                           6-31G*                  6       15   3s2p1d
 F                           6-31G*                  6       15   3s2p1d
 H                           6-31G*                  2        2   2s


      Symmetry analysis of basis
      --------------------------

        a1         90
        a2         26
        b1         71
        b2         37


 solvent parameters
 solvname_short: name    
 solvname_long:  unknown                            
 dielec:       78.4000
 dielecinf:     1.7769
 nonaqueous SMD model solvent descriptors
 dielec:       78.4000
 sola:          0.8200
 solb:          0.3500
 solc:          0.0000
 solg:        103.6200
 solh:          0.0000
 soln:          1.3330

          ---------------
          -cosmo- solvent
          ---------------
 Cosmo: York-Karplus, doi: 10.1021/jp992097l
 dielectric constant -eps-     =  78.40
 screen = (eps-1)/(eps    )    =   0.98724
 surface charge correction     = lagrangian
 -lineq- algorithm             =   0
 -bem- low  level              =   3
 -bem- from -octahedral-
 gaussian surface charge width =   0.98000
 degree of switching           =   1.00000
 switching function tolerance  =   0.00010
 atomic radii = 
 --------------
    1  5.000  1.920
    2  7.000  1.890
    3  6.000  1.850
    4  6.000  1.850
    5  6.000  1.850
    6  6.000  1.850
    7  6.000  1.850
    8  6.000  1.850
    9  7.000  1.890
   10  6.000  1.850
   11  6.000  1.850
   12  6.000  1.850
   13  9.000  1.730
   14  9.000  1.730
   15  1.000  1.200
   16  1.000  1.200
   17  1.000  1.200
   18  1.000  1.200
   19  1.000  1.200
   20  1.000  1.200
   21  1.000  1.200

 solvent accessible surface
 --------------------------

 ---------- ATOMIC COORDINATES (A.U.) ------------ VDWR(ANG.) --
     1    0.00000000    0.00000000   -2.27707471     1.920
     2   -2.35510586    0.00000000   -0.53454274     1.890
     3   -4.75728271    0.00000000   -1.24932758     1.850
     4   -6.34313966    0.00000000    0.87427082     1.850
     5   -4.80039080    0.00000000    2.96693049     1.850
     6   -2.27776410    0.00000000    2.07169988     1.850
     7    0.00000000    0.00000000    3.36193527     1.850
     8    2.27776410    0.00000000    2.07169988     1.850
     9    2.35510586    0.00000000   -0.53454274     1.890
    10    4.75728271    0.00000000   -1.24932758     1.850
    11    6.34313966    0.00000000    0.87427082     1.850
    12    4.80039080    0.00000000    2.96693049     1.850
    13    0.00000000    2.13444080   -3.76342315     1.730
    14    0.00000000   -2.13444080   -3.76342315     1.730
    15   -5.25712798    0.00000000   -3.21493123     1.200
    16   -8.36836292    0.00000000    0.83434718     1.200
    17   -5.34919913    0.00000000    4.91758044     1.200
    18    0.00000000    0.00000000    5.40210076     1.200
    19    5.25712798    0.00000000   -3.21493123     1.200
    20    8.36836292    0.00000000    0.83434718     1.200
    21    5.34919913    0.00000000    4.91758044     1.200
 number of segments per atom =        128
 number of   points per atom =        128
 atom (   nspa,  nppa )
 ----------------------
    1 (      8,     0 )       0
    2 (     22,     0 )       0
    3 (     48,     0 )       0
    4 (     48,     0 )       0
    5 (     50,     0 )       0
    6 (     28,     0 )       0
    7 (     44,     0 )       0
    8 (     28,     0 )       0
    9 (     22,     0 )       0
   10 (     48,     0 )       0
   11 (     48,     0 )       0
   12 (     50,     0 )       0
   13 (     74,     0 )       0
   14 (     74,     0 )       0
   15 (     50,     0 )       0
   16 (     48,     0 )       0
   17 (     50,     0 )       0
   18 (     48,     0 )       0
   19 (     50,     0 )       0
   20 (     48,     0 )       0
   21 (     50,     0 )       0
 number of -cosmo- surface points =      936
 molecular surface =    196.732 angstrom**2
 molecular volume  =    110.956 angstrom**3
 ...... end of -cosmo- initialization ......


 G(SMD-CDS) energy (kcal/mol)  =     8.230
 SMD-CDS SASA (angstrom**2)    =   233.404

  Caching 1-el integrals 

            General Information
            -------------------
          SCF calculation type: DFT
          Wavefunction type:  closed shell.
          No. of atoms     :    21
          No. of electrons :    98
           Alpha electrons :    49
            Beta electrons :    49
          Charge           :     0
          Spin multiplicity:     1
          Use of symmetry is: on ; symmetry adaption is: on 
          Maximum number of iterations:  30
          AO basis - number of functions:   224
                     number of shells:    98
          Convergence on energy requested:  1.00D-06
          Convergence on density requested:  1.00D-05
          Convergence on gradient requested:  5.00D-04

              XC Information
              --------------
          PerdewBurkeErnzerhof Exchange Functional  1.000          
            Perdew 1991 LDA Correlation Functional  1.000 local    
           PerdewBurkeErnz. Correlation Functional  1.000 non-local

             Grid Information
             ----------------
          Grid used for XC integration:  medium    
          Radial quadrature: Mura-Knowles        
          Angular quadrature: Lebedev. 
          Tag              B.-S. Rad. Rad. Pts. Rad. Cut. Ang. Pts.
          ---              ---------- --------- --------- ---------
          B                   0.85       49          11.0       434
          N                   0.65       49          13.0       434
          C                   0.70       49          14.0       434
          F                   0.50       49          13.0       434
          H                   0.35       45          14.0       434
          Grid pruning is: on 
          Number of quadrature shells:   572
          Spatial weights used:  Erf1

          Convergence Information
          -----------------------
          Convergence aids based upon iterative change in 
          total energy or number of iterations. 
          Levelshifting, if invoked, occurs when the 
          HOMO/LUMO gap drops below (HL_TOL):  1.00D-02
          DIIS, if invoked, will attempt to extrapolate 
          using up to (NFOCK): 10 stored Fock matrices.

                    Damping( 0%)  Levelshifting(0.5)       DIIS
                  --------------- ------------------- ---------------
          dE  on:    start            ASAP                start   
          dE off:    2 iters         30 iters            30 iters 


      Screening Tolerance Information
      -------------------------------
          Density screening/tol_rho:  1.00D-10
          AO Gaussian exp screening on grid/accAOfunc:  14
          CD Gaussian exp screening on grid/accCDfunc:  20
          XC Gaussian exp screening on grid/accXCfunc:  20
          Schwarz screening/accCoul:  1.00D-08

      Dispersion Parameters
      ---------------------

           DFT-D3BJ Model   
          s6 scale factor  :        1.000000000000
          s8 scale factor  :        0.787500000000
          a1 parameter     :        0.428900000000
          a2 parameter     :        4.440700000000
              vdW contrib  :       -0.025308907333


      Superposition of Atomic Density Guess
      -------------------------------------

 Sum of atomic energies:        -674.28814414

      Non-variational initial energy
      ------------------------------

 Total energy =    -683.584846
 1-e energy   =   -2642.645962
 2-e energy   =    1092.350728
 HOMO         =      -0.206299
 LUMO         =      -0.094041


      Symmetry analysis of molecular orbitals - initial
      -------------------------------------------------

  Numbering of irreducible representations: 

     1 a1          2 a2          3 b1          4 b2      

  Orbital symmetries:

     1 a1          2 b2          3 a1          4 b1          5 a1      
     6 b1          7 a1          8 b1          9 a1         10 b1      
    11 a1         12 b1         13 a1         14 a1         15 a1      
    16 b1         17 a1         18 b2         19 a1         20 a1      
    21 b1         22 b1         23 a1         24 a1         25 a1      
    26 b1         27 b1         28 a1         29 b1         30 b2      
    31 a1         32 a1         33 b1         34 a2         35 b2      
    36 b2         37 a2         38 a1         39 a1         40 b1      
    41 a1         42 b1         43 b1         44 a1         45 b1      
    46 b2         47 b2         48 a2         49 a2         50 b2      
    51 a2         52 b2         53 a2         54 a1         55 b2      
    56 b1         57 a1         58 a1         59 b1      

   Time after variat. SCF:      4.0
   Time prior to 1st pass:      4.0

 Integral file          = ./molecule_BODIPY.aoints.0
 Record size in doubles =  65536        No. of integs per rec  =  43688
 Max. records in memory =      0        Max. records in file   =  60191
 No. of bits per label  =      8        No. of bits per value  =     64


 #quartets = 3.002D+06 #integrals = 4.384D+07 #direct =  0.0% #cached =100.0%


 Grid_pts file          = ./molecule_BODIPY.gridpts.0
 Record size in doubles =  12289        No. of grid_pts per rec  =   3070
 Max. records in memory =     90        Max. recs in file   =    315911


           Memory utilization after 1st SCF pass: 
           Heap Space remaining (MW):       11.87            11866378
          Stack Space remaining (MW):       13.11            13105404

   convergence    iter        energy       DeltaE   RMS-Dens  Diis-err    time
 ---------------- ----- ----------------- --------- --------- ---------  ------
     COSMO gas phase
 d= 0,ls=0.0,diis     1   -680.4025276243 -1.55D+03  1.39D-02  2.26D+00    18.3
 d= 0,ls=0.0,diis     2   -679.2451899599  1.16D+00  1.14D-02  1.06D+01    19.7
 d= 0,ls=0.0,diis     3   -680.5390251075 -1.29D+00  3.95D-03  6.41D-01    21.1
 d= 0,ls=0.0,diis     4   -680.5790861157 -4.01D-02  2.70D-03  2.20D-01    22.5
 d= 0,ls=0.0,diis     5   -680.5934249779 -1.43D-02  1.32D-03  1.09D-01    24.0
  Resetting Diis
 d= 0,ls=0.0,diis     6   -680.6085962653 -1.52D-02  4.45D-04  8.86D-03    25.5
 d= 0,ls=0.0,diis     7   -680.6094862517 -8.90D-04  5.26D-04  1.76D-03    27.1
 d= 0,ls=0.0,diis     8   -680.6079202816  1.57D-03  3.96D-04  1.32D-02    28.6
 d= 0,ls=0.0,diis     9   -680.6097039133 -1.78D-03  4.67D-05  2.20D-04    30.1
 d= 0,ls=0.0,diis    10   -680.6097287678 -2.49D-05  1.07D-05  6.30D-06    31.7
 d= 0,ls=0.0,diis    11   -680.6097293701 -6.02D-07  4.18D-06  1.03D-06    33.3

           Memory utilization after 1st SCF pass: 
           Heap Space remaining (MW):       11.86            11862602
          Stack Space remaining (MW):       13.11            13105404

   convergence    iter        energy       DeltaE   RMS-Dens  Diis-err    time
 ---------------- ----- ----------------- --------- --------- ---------  ------
     COSMO solvation phase
 d= 0,ls=0.0,diis     1   -680.6112200469 -1.49D-03  1.42D-03  6.86D-03    40.4
 d= 0,ls=0.0,diis     2   -680.6124079300 -1.19D-03  4.91D-04  8.47D-03    47.4
 d= 0,ls=0.0,diis     3   -680.6132647846 -8.57D-04  1.69D-04  2.37D-03    54.5
 d= 0,ls=0.0,diis     4   -680.6134972167 -2.32D-04  6.23D-05  3.51D-04    61.4
 d= 0,ls=0.0,diis     5   -680.6135288778 -3.17D-05  2.32D-05  3.50D-05    68.5
 d= 0,ls=0.0,diis     6   -680.6135319313 -3.05D-06  1.01D-05  5.54D-06    75.6
 d= 0,ls=0.0,diis     7   -680.6135326044 -6.73D-07  3.17D-06  1.03D-06    82.8


         Total DFT energy =     -680.613532604356
      One electron energy =    -2653.309267378418
           Coulomb energy =     1194.685012129876
    Exchange-Corr. energy =      -89.694147924896
 Nuclear repulsion energy =      866.710389219750

    Dispersion correction =       -0.025308907333

             COSMO energy =        1.019790256664

 Numeric. integr. density =       97.999995153400

     Total iterative time =     78.9s


                                COSMO-SMD solvation results
                                ---------------------------
 Reference for the SMD model:
 Marenich, A. V.; Cramer, C. J.; Truhlar, D. G. J. Phys. Chem. B 2009, 113, 6378

             internal energy in gas <Psi(g)|H|Psi(g)> =      -680.609729370050
         internal energy in solvent <Psi(s)|H|Psi(s)> =      -680.606804695918
                               delta internal energy  =         0.002924674132 (    1.84 kcal/mol)
   total free energy in solvent <Psi(s)|H+V/2|Psi(s)> =      -680.626647655279
 polarization energy contribution <Psi(s)|V/2|Psi(s)> =        -0.019842959361 (  -12.45 kcal/mol)
    total free energy in solvent including G(SMD-CDS) =      -680.613532604356
                       G(SMD-CDS) energy contribution =         0.013115050923 (    8.23 kcal/mol)
     1 M fixed-concentration free energy of solvation =        -0.003803234306 (   -2.39 kcal/mol)

                  Occupations of the irreducible representations
                  ----------------------------------------------

                     irrep           alpha         beta
                     --------     --------     --------
                     a1               22.0         22.0
                     a2                4.0          4.0
                     b1               16.0         16.0
                     b2                7.0          7.0


                       DFT Final Molecular Orbital Analysis
                       ------------------------------------

 Vector    1  Occ=2.000000D+00  E=-2.422909D+01  Symmetry=a1
              MO Center= -5.2D-20, -1.0D-14, -2.0D+00, r^2= 1.3D+00
   Bfn.  Coefficient  Atom+Function         Bfn.  Coefficient  Atom+Function  
  ----- ------------  ---------------      ----- ------------  ---------------
   181      0.701954  13 F  s               196      0.701954  14 F  s         

 Vector    2  Occ=2.000000D+00  E=-2.422908D+01  Symmetry=b2
              MO Center=  5.2D-23,  9.8D-15, -2.0D+00, r^2= 1.3D+00
   Bfn.  Coefficient  Atom+Function         Bfn.  Coefficient  Atom+Function  
  ----- ------------  ---------------      ----- ------------  ---------------
   181      0.701952  13 F  s               196     -0.701952  14 F  s         

 Vector    3  Occ=2.000000D+00  E=-1.403953D+01  Symmetry=a1
              MO Center= -4.2D-09,  2.0D-20, -2.8D-01, r^2= 1.6D+00
   Bfn.  Coefficient  Atom+Function         Bfn.  Coefficient  Atom+Function  
  ----- ------------  ---------------      ----- ------------  ---------------
    16      0.701641   2 N  s               121      0.701641   9 N  s         
    17      0.026087   2 N  s               122      0.026087   9 N  s         

 Vector    4  Occ=2.000000D+00  E=-1.403953D+01  Symmetry=b1
              MO Center=  4.2D-09,  1.5D-21, -2.8D-01, r^2= 1.6D+00
   Bfn.  Coefficient  Atom+Function         Bfn.  Coefficient  Atom+Function  
  ----- ------------  ---------------      ----- ------------  ---------------
    16      0.701652   2 N  s               121     -0.701652   9 N  s         
    17      0.026070   2 N  s               122     -0.026070   9 N  s         

 Vector    5  Occ=2.000000D+00  E=-9.940648D+00  Symmetry=b1
              MO Center= -5.8D-09,  1.8D-17, -6.6D-01, r^2= 6.4D+00
   Bfn.  Coefficient  Atom+Function         Bfn.  Coefficient  Atom+Function  
  ----- ------------  ---------------      ----- ------------  ---------------
    31      0.701670   3 C  s               136     -0.701670  10 C  s         
    32      0.037591   3 C  s               137     -0.037591  10 C  s         

 Vector    6  Occ=2.000000D+00  E=-9.940646D+00  Symmetry=a1
              MO Center=  5.8D-09, -9.7D-19, -6.6D-01, r^2= 6.4D+00
   Bfn.  Coefficient  Atom+Function         Bfn.  Coefficient  Atom+Function  
  ----- ------------  ---------------      ----- ------------  ---------------
    31      0.701663   3 C  s               136      0.701663  10 C  s         
    32      0.037622   3 C  s               137      0.037622  10 C  s         

 Vector    7  Occ=2.000000D+00  E=-9.940133D+00  Symmetry=a1
              MO Center= -8.1D-11, -1.4D-18,  1.2D+00, r^2= 1.3D+00
   Bfn.  Coefficient  Atom+Function         Bfn.  Coefficient  Atom+Function  
  ----- ------------  ---------------      ----- ------------  ---------------
    76      0.635501   6 C  s               106      0.635501   8 C  s         
    91      0.420293   7 C  s                77      0.033677   6 C  s         
   107      0.033677   8 C  s         

 Vector    8  Occ=2.000000D+00  E=-9.939993D+00  Symmetry=b1
              MO Center=  8.4D-11,  1.1D-18,  1.1D+00, r^2= 1.5D+00
   Bfn.  Coefficient  Atom+Function         Bfn.  Coefficient  Atom+Function  
  ----- ------------  ---------------      ----- ------------  ---------------
    76      0.701702   6 C  s               106     -0.701702   8 C  s         
    77      0.037672   6 C  s               107     -0.037672   8 C  s         

 Vector    9  Occ=2.000000D+00  E=-9.939358D+00  Symmetry=a1
              MO Center= -2.5D-12, -2.6D-23,  1.7D+00, r^2= 3.6D-01
   Bfn.  Coefficient  Atom+Function         Bfn.  Coefficient  Atom+Function  
  ----- ------------  ---------------      ----- ------------  ---------------
    91      0.899040   7 C  s                76     -0.297512   6 C  s         
   106     -0.297512   8 C  s                92      0.049121   7 C  s         
    96     -0.026278   7 C  s         

 Vector   10  Occ=2.000000D+00  E=-9.908299D+00  Symmetry=b1
              MO Center=  1.5D-15,  4.8D-24,  1.6D+00, r^2= 6.5D+00
   Bfn.  Coefficient  Atom+Function         Bfn.  Coefficient  Atom+Function  
  ----- ------------  ---------------      ----- ------------  ---------------
    61      0.701447   5 C  s               166     -0.701447  12 C  s         
    62      0.037948   5 C  s               167     -0.037948  12 C  s         

 Vector   11  Occ=2.000000D+00  E=-9.908299D+00  Symmetry=a1
              MO Center= -2.2D-15,  3.5D-23,  1.6D+00, r^2= 6.5D+00
   Bfn.  Coefficient  Atom+Function         Bfn.  Coefficient  Atom+Function  
  ----- ------------  ---------------      ----- ------------  ---------------
    61      0.701434   5 C  s               166      0.701434  12 C  s         
    62      0.037870   5 C  s               167      0.037870  12 C  s         

 Vector   12  Occ=2.000000D+00  E=-9.900052D+00  Symmetry=b1
              MO Center= -4.7D-16,  2.5D-24,  4.6D-01, r^2= 1.1D+01
   Bfn.  Coefficient  Atom+Function         Bfn.  Coefficient  Atom+Function  
  ----- ------------  ---------------      ----- ------------  ---------------
    46      0.701449   4 C  s               151     -0.701449  11 C  s         
    47      0.038020   4 C  s               152     -0.038020  11 C  s         

 Vector   13  Occ=2.000000D+00  E=-9.900052D+00  Symmetry=a1
              MO Center=  4.4D-16,  1.0D-20,  4.6D-01, r^2= 1.1D+01
   Bfn.  Coefficient  Atom+Function         Bfn.  Coefficient  Atom+Function  
  ----- ------------  ---------------      ----- ------------  ---------------
    46      0.701439   4 C  s               151      0.701439  11 C  s         
    47      0.037962   4 C  s               152      0.037962  11 C  s         

 Vector   14  Occ=2.000000D+00  E=-6.576226D+00  Symmetry=a1
              MO Center= -7.3D-18,  2.7D-18, -1.2D+00, r^2= 4.1D-02
   Bfn.  Coefficient  Atom+Function         Bfn.  Coefficient  Atom+Function  
  ----- ------------  ---------------      ----- ------------  ---------------
     1      0.992653   1 B  s                 2      0.060837   1 B  s         

 Vector   15  Occ=2.000000D+00  E=-1.069082D+00  Symmetry=a1
              MO Center=  3.2D-17, -3.1D-15, -1.9D+00, r^2= 1.4D+00
   Bfn.  Coefficient  Atom+Function         Bfn.  Coefficient  Atom+Function  
  ----- ------------  ---------------      ----- ------------  ---------------
   182      0.344875  13 F  s               197      0.344875  14 F  s         
   186      0.328664  13 F  s               201      0.328664  14 F  s         
   181     -0.156457  13 F  s               196     -0.156457  14 F  s         
     2      0.111591   1 B  s                 1     -0.080955   1 B  s         
     5     -0.071643   1 B  pz              184     -0.054586  13 F  py        

 Vector   16  Occ=2.000000D+00  E=-1.036189D+00  Symmetry=b2
              MO Center=  6.6D-17,  3.7D-15, -1.9D+00, r^2= 1.5D+00
   Bfn.  Coefficient  Atom+Function         Bfn.  Coefficient  Atom+Function  
  ----- ------------  ---------------      ----- ------------  ---------------
   182      0.368481  13 F  s               197     -0.368481  14 F  s         
   186      0.328131  13 F  s               201     -0.328131  14 F  s         
   181     -0.163595  13 F  s               196      0.163595  14 F  s         
     4      0.124860   1 B  py               14     -0.053895   1 B  dyz       
   184     -0.039943  13 F  py              199     -0.039943  14 F  py        

 Vector   17  Occ=2.000000D+00  E=-9.204716D-01  Symmetry=a1
              MO Center=  8.4D-14, -4.5D-16,  6.8D-02, r^2= 3.5D+00
   Bfn.  Coefficient  Atom+Function         Bfn.  Coefficient  Atom+Function  
  ----- ------------  ---------------      ----- ------------  ---------------
    21      0.282400   2 N  s               126      0.282400   9 N  s         
    17      0.227126   2 N  s               122      0.227126   9 N  s         
    77      0.131789   6 C  s               107      0.131789   8 C  s         
    32      0.117847   3 C  s               137      0.117847  10 C  s         
    16     -0.116308   2 N  s               121     -0.116308   9 N  s         

 Vector   18  Occ=2.000000D+00  E=-9.049668D-01  Symmetry=b1
              MO Center= -8.4D-14, -1.8D-16,  2.0D-02, r^2= 4.0D+00
   Bfn.  Coefficient  Atom+Function         Bfn.  Coefficient  Atom+Function  
  ----- ------------  ---------------      ----- ------------  ---------------
    21      0.274080   2 N  s               126     -0.274080   9 N  s         
    17      0.231864   2 N  s               122     -0.231864   9 N  s         
    32      0.134566   3 C  s               137     -0.134566  10 C  s         
    16     -0.116586   2 N  s                77      0.116370   6 C  s         
   107     -0.116370   8 C  s               121      0.116586   9 N  s         

 Vector   19  Occ=2.000000D+00  E=-7.447485D-01  Symmetry=a1
              MO Center= -1.9D-15,  7.0D-17,  9.4D-01, r^2= 3.4D+00
   Bfn.  Coefficient  Atom+Function         Bfn.  Coefficient  Atom+Function  
  ----- ------------  ---------------      ----- ------------  ---------------
    92      0.285444   7 C  s                96      0.176926   7 C  s         
    77      0.167739   6 C  s               107      0.167739   8 C  s         
    91     -0.146981   7 C  s                32     -0.132927   3 C  s         
   137     -0.132927  10 C  s                78      0.105573   6 C  px        
   108     -0.105573   8 C  px               81      0.100262   6 C  s         

 Vector   20  Occ=2.000000D+00  E=-7.218753D-01  Symmetry=a1
              MO Center= -6.9D-14, -2.9D-16,  6.2D-01, r^2= 7.2D+00
   Bfn.  Coefficient  Atom+Function         Bfn.  Coefficient  Atom+Function  
  ----- ------------  ---------------      ----- ------------  ---------------
    62     -0.183035   5 C  s               167     -0.183035  12 C  s         
    21      0.181286   2 N  s               126      0.181286   9 N  s         
    47     -0.167965   4 C  s               152     -0.167965  11 C  s         
    17      0.150980   2 N  s               122      0.150980   9 N  s         
    51     -0.128183   4 C  s               156     -0.128183  11 C  s         

 Vector   21  Occ=2.000000D+00  E=-7.099790D-01  Symmetry=b1
              MO Center=  1.0D-13,  3.9D-16,  6.7D-01, r^2= 7.6D+00
   Bfn.  Coefficient  Atom+Function         Bfn.  Coefficient  Atom+Function  
  ----- ------------  ---------------      ----- ------------  ---------------
    62     -0.194681   5 C  s               167      0.194681  12 C  s         
    21      0.189138   2 N  s               126     -0.189138   9 N  s         
    47     -0.167428   4 C  s               152      0.167428  11 C  s         
    17      0.159663   2 N  s               122     -0.159663   9 N  s         
    66     -0.153888   5 C  s               171      0.153888  12 C  s         

 Vector   22  Occ=2.000000D+00  E=-6.625502D-01  Symmetry=b1
              MO Center=  1.1D-14,  7.4D-17,  3.0D-01, r^2= 6.5D+00
   Bfn.  Coefficient  Atom+Function         Bfn.  Coefficient  Atom+Function  
  ----- ------------  ---------------      ----- ------------  ---------------
    77     -0.202381   6 C  s               107      0.202381   8 C  s         
    32      0.186555   3 C  s               137     -0.186555  10 C  s         
    36      0.141064   3 C  s               141     -0.141064  10 C  s         
    81     -0.139812   6 C  s               111      0.139812   8 C  s         
    93      0.136503   7 C  px               47      0.133545   4 C  s         

 Vector   23  Occ=2.000000D+00  E=-6.054893D-01  Symmetry=a1
              MO Center= -6.7D-15, -1.8D-19,  4.5D-01, r^2= 6.6D+00
   Bfn.  Coefficient  Atom+Function         Bfn.  Coefficient  Atom+Function  
  ----- ------------  ---------------      ----- ------------  ---------------
    92      0.227898   7 C  s                96      0.219370   7 C  s         
    32      0.190679   3 C  s               137      0.190679  10 C  s         
    36      0.161024   3 C  s               141      0.161024  10 C  s         
    78      0.122774   6 C  px              108     -0.122774   8 C  px        
    62     -0.121125   5 C  s               167     -0.121125  12 C  s         

 Vector   24  Occ=2.000000D+00  E=-5.510628D-01  Symmetry=a1
              MO Center= -3.4D-14,  1.4D-15,  1.7D-01, r^2= 8.1D+00
   Bfn.  Coefficient  Atom+Function         Bfn.  Coefficient  Atom+Function  
  ----- ------------  ---------------      ----- ------------  ---------------
    18      0.207432   2 N  px              123     -0.207432   9 N  px        
    47      0.173171   4 C  s               152      0.173171  11 C  s         
     2      0.143932   1 B  s                51      0.142211   4 C  s         
   156      0.142211  11 C  s                33     -0.124198   3 C  px        
   138      0.124198  10 C  px               63     -0.119434   5 C  px        

 Vector   25  Occ=2.000000D+00  E=-5.356230D-01  Symmetry=a1
              MO Center=  1.9D-13, -1.0D-15,  5.1D-01, r^2= 6.6D+00
   Bfn.  Coefficient  Atom+Function         Bfn.  Coefficient  Atom+Function  
  ----- ------------  ---------------      ----- ------------  ---------------
    20      0.204305   2 N  pz              125      0.204305   9 N  pz        
    62     -0.143981   5 C  s               167     -0.143981  12 C  s         
     2     -0.142575   1 B  s                80     -0.136960   6 C  pz        
   110     -0.136960   8 C  pz               66     -0.128218   5 C  s         
   171     -0.128218  12 C  s                95     -0.112300   7 C  pz        

 Vector   26  Occ=2.000000D+00  E=-5.250165D-01  Symmetry=b1
              MO Center= -1.8D-13,  2.6D-16,  5.4D-01, r^2= 7.3D+00
   Bfn.  Coefficient  Atom+Function         Bfn.  Coefficient  Atom+Function  
  ----- ------------  ---------------      ----- ------------  ---------------
    20      0.206330   2 N  pz              125     -0.206330   9 N  pz        
    80     -0.166246   6 C  pz              110      0.166246   8 C  pz        
    66     -0.149104   5 C  s               171      0.149104  12 C  s         
    62     -0.141212   5 C  s               167      0.141212  12 C  s         
    35      0.132354   3 C  pz              140     -0.132354  10 C  pz        

 Vector   27  Occ=2.000000D+00  E=-5.184614D-01  Symmetry=b1
              MO Center=  4.4D-15, -5.1D-20,  4.9D-01, r^2= 7.7D+00
   Bfn.  Coefficient  Atom+Function         Bfn.  Coefficient  Atom+Function  
  ----- ------------  ---------------      ----- ------------  ---------------
    93      0.224145   7 C  px               50      0.149140   4 C  pz        
   155     -0.149140  11 C  pz               32     -0.147653   3 C  s         
   137      0.147653  10 C  s                77     -0.142253   6 C  s         
   107      0.142253   8 C  s                36     -0.133571   3 C  s         
   141      0.133571  10 C  s                21      0.132326   2 N  s         

 Vector   28  Occ=2.000000D+00  E=-4.896317D-01  Symmetry=b1
              MO Center= -4.5D-15,  1.0D-18,  2.6D-01, r^2= 8.8D+00
   Bfn.  Coefficient  Atom+Function         Bfn.  Coefficient  Atom+Function  
  ----- ------------  ---------------      ----- ------------  ---------------
    18      0.194673   2 N  px              123      0.194673   9 N  px        
    48     -0.167709   4 C  px              153     -0.167709  11 C  px        
    93     -0.162365   7 C  px               78      0.158384   6 C  px        
   108      0.158384   8 C  px                3     -0.148519   1 B  px        
    51      0.143780   4 C  s               156     -0.143780  11 C  s         

 Vector   29  Occ=2.000000D+00  E=-4.523890D-01  Symmetry=a1
              MO Center= -2.0D-15, -1.5D-15,  2.7D-01, r^2= 8.4D+00
   Bfn.  Coefficient  Atom+Function         Bfn.  Coefficient  Atom+Function  
  ----- ------------  ---------------      ----- ------------  ---------------
    96      0.284159   7 C  s                95      0.205853   7 C  pz        
    35      0.184047   3 C  pz              140      0.184047  10 C  pz        
   217      0.160919  18 H  s                66     -0.152594   5 C  s         
   171     -0.152594  12 C  s               211     -0.148362  15 H  s         
   219     -0.148362  19 H  s                36     -0.132221   3 C  s         

 Vector   30  Occ=2.000000D+00  E=-4.448964D-01  Symmetry=a1
              MO Center=  1.9D-15, -6.6D-15, -8.9D-01, r^2= 6.6D+00
   Bfn.  Coefficient  Atom+Function         Bfn.  Coefficient  Atom+Function  
  ----- ------------  ---------------      ----- ------------  ---------------
   184      0.291472  13 F  py              199     -0.291472  14 F  py        
     2     -0.196241   1 B  s               188      0.184224  13 F  py        
   203     -0.184224  14 F  py                5      0.147115   1 B  pz        
   186      0.144056  13 F  s               201      0.144056  14 F  s         
    63     -0.119216   5 C  px              168      0.119216  12 C  px        

 Vector   31  Occ=2.000000D+00  E=-4.276262D-01  Symmetry=b2
              MO Center= -4.1D-15,  1.1D-14, -1.0D+00, r^2= 3.6D+00
   Bfn.  Coefficient  Atom+Function         Bfn.  Coefficient  Atom+Function  
  ----- ------------  ---------------      ----- ------------  ---------------
     4      0.260112   1 B  py              185      0.248361  13 F  pz        
   200     -0.248361  14 F  pz               19      0.187366   2 N  py        
   124      0.187366   9 N  py              184     -0.176682  13 F  py        
   199     -0.176682  14 F  py              186     -0.168468  13 F  s         
   201      0.168468  14 F  s               189      0.147936  13 F  pz        

 Vector   32  Occ=2.000000D+00  E=-4.060657D-01  Symmetry=a1
              MO Center=  7.9D-14, -7.2D-15,  1.4D-01, r^2= 6.0D+00
   Bfn.  Coefficient  Atom+Function         Bfn.  Coefficient  Atom+Function  
  ----- ------------  ---------------      ----- ------------  ---------------
    95      0.251417   7 C  pz                5      0.224150   1 B  pz        
   184      0.203517  13 F  py              199     -0.203517  14 F  py        
    18      0.172664   2 N  px              123     -0.172664   9 N  px        
     6      0.155627   1 B  s                96     -0.152768   7 C  s         
    99      0.150210   7 C  pz               78     -0.145749   6 C  px        

 Vector   33  Occ=2.000000D+00  E=-3.985883D-01  Symmetry=b1
              MO Center= -8.3D-14, -3.2D-16,  2.9D-01, r^2= 7.6D+00
   Bfn.  Coefficient  Atom+Function         Bfn.  Coefficient  Atom+Function  
  ----- ------------  ---------------      ----- ------------  ---------------
    20      0.194504   2 N  pz              125     -0.194504   9 N  pz        
    80     -0.183311   6 C  pz              110      0.183311   8 C  pz        
    93      0.171019   7 C  px               65      0.167736   5 C  pz        
   170     -0.167736  12 C  pz                3      0.148425   1 B  px        
   183      0.144544  13 F  px              198      0.144544  14 F  px        

 Vector   34  Occ=2.000000D+00  E=-3.860907D-01  Symmetry=b1
              MO Center= -7.1D-14,  4.3D-15, -2.9D-01, r^2= 7.3D+00
   Bfn.  Coefficient  Atom+Function         Bfn.  Coefficient  Atom+Function  
  ----- ------------  ---------------      ----- ------------  ---------------
    18      0.218692   2 N  px              123      0.218692   9 N  px        
    33     -0.182968   3 C  px              138     -0.182968  10 C  px        
   183     -0.179860  13 F  px              198     -0.179860  14 F  px        
    93      0.169636   7 C  px                3     -0.168503   1 B  px        
    66      0.144646   5 C  s               171     -0.144646  12 C  s         

 Vector   35  Occ=2.000000D+00  E=-3.824368D-01  Symmetry=b2
              MO Center=  3.3D-17,  3.2D-15, -4.3D-01, r^2= 5.2D+00
   Bfn.  Coefficient  Atom+Function         Bfn.  Coefficient  Atom+Function  
  ----- ------------  ---------------      ----- ------------  ---------------
   184      0.207173  13 F  py              199      0.207173  14 F  py        
   185     -0.193745  13 F  pz              200      0.193745  14 F  pz        
     4     -0.181646   1 B  py               79      0.173349   6 C  py        
   109      0.173349   8 C  py               19      0.156766   2 N  py        
   124      0.156766   9 N  py               94      0.144929   7 C  py        

 Vector   36  Occ=2.000000D+00  E=-3.804545D-01  Symmetry=a2
              MO Center=  1.9D-15, -5.9D-15, -1.5D-02, r^2= 5.3D+00
   Bfn.  Coefficient  Atom+Function         Bfn.  Coefficient  Atom+Function  
  ----- ------------  ---------------      ----- ------------  ---------------
    19      0.262923   2 N  py              124     -0.262923   9 N  py        
    34      0.179024   3 C  py              139     -0.179024  10 C  py        
    23      0.168651   2 N  py              128     -0.168651   9 N  py        
    79      0.158816   6 C  py              109     -0.158816   8 C  py        
    49      0.116538   4 C  py              154     -0.116538  11 C  py        

 Vector   37  Occ=2.000000D+00  E=-3.796302D-01  Symmetry=a1
              MO Center=  5.1D-14, -8.1D-17,  6.8D-01, r^2= 1.0D+01
   Bfn.  Coefficient  Atom+Function         Bfn.  Coefficient  Atom+Function  
  ----- ------------  ---------------      ----- ------------  ---------------
    48      0.253478   4 C  px              153     -0.253478  11 C  px        
    95     -0.210411   7 C  pz               96      0.167923   7 C  s         
   213     -0.154001  16 H  s               221     -0.154001  20 H  s         
    21     -0.139105   2 N  s               126     -0.139105   9 N  s         
    78      0.132441   6 C  px              108     -0.132441   8 C  px        

 Vector   38  Occ=2.000000D+00  E=-3.549388D-01  Symmetry=a1
              MO Center=  1.0D-14,  1.5D-17,  1.0D+00, r^2= 9.2D+00
   Bfn.  Coefficient  Atom+Function         Bfn.  Coefficient  Atom+Function  
  ----- ------------  ---------------      ----- ------------  ---------------
    65      0.181938   5 C  pz              170      0.181938  12 C  pz        
    81     -0.164389   6 C  s               111     -0.164389   8 C  s         
   215      0.147151  17 H  s               223      0.147151  21 H  s         
   216      0.140806  17 H  s               224      0.140806  21 H  s         
    20      0.133734   2 N  pz              125      0.133734   9 N  pz        

 Vector   39  Occ=2.000000D+00  E=-3.486882D-01  Symmetry=a1
              MO Center=  3.4D-13,  1.5D-15,  3.0D-02, r^2= 8.5D+00
   Bfn.  Coefficient  Atom+Function         Bfn.  Coefficient  Atom+Function  
  ----- ------------  ---------------      ----- ------------  ---------------
    35      0.199971   3 C  pz              140      0.199971  10 C  pz        
    50     -0.188870   4 C  pz              155     -0.188870  11 C  pz        
    95     -0.173169   7 C  pz              185      0.168457  13 F  pz        
   200      0.168457  14 F  pz               65      0.154793   5 C  pz        
   170      0.154793  12 C  pz              211     -0.128749  15 H  s         

 Vector   40  Occ=2.000000D+00  E=-3.465099D-01  Symmetry=b1
              MO Center= -3.6D-13, -6.3D-16,  3.4D-01, r^2= 1.0D+01
   Bfn.  Coefficient  Atom+Function         Bfn.  Coefficient  Atom+Function  
  ----- ------------  ---------------      ----- ------------  ---------------
    50     -0.236492   4 C  pz              155      0.236492  11 C  pz        
    35      0.227513   3 C  pz              140     -0.227513  10 C  pz        
    65      0.206917   5 C  pz              170     -0.206917  12 C  pz        
   215      0.128645  17 H  s               223     -0.128645  21 H  s         
    81     -0.126365   6 C  s               111      0.126365   8 C  s         

 Vector   41  Occ=2.000000D+00  E=-3.364759D-01  Symmetry=b1
              MO Center=  1.8D-14,  1.4D-16,  8.8D-01, r^2= 9.0D+00
   Bfn.  Coefficient  Atom+Function         Bfn.  Coefficient  Atom+Function  
  ----- ------------  ---------------      ----- ------------  ---------------
    78     -0.262874   6 C  px              108     -0.262874   8 C  px        
    63      0.249754   5 C  px              168      0.249754  12 C  px        
    93      0.227201   7 C  px               48     -0.214145   4 C  px        
   153     -0.214145  11 C  px              213      0.140025  16 H  s         
   221     -0.140025  20 H  s               214      0.131795  16 H  s         

 Vector   42  Occ=2.000000D+00  E=-3.135075D-01  Symmetry=a1
              MO Center=  1.4D-15, -1.0D-16, -1.3D+00, r^2= 4.0D+00
   Bfn.  Coefficient  Atom+Function         Bfn.  Coefficient  Atom+Function  
  ----- ------------  ---------------      ----- ------------  ---------------
   185      0.375488  13 F  pz              200      0.375488  14 F  pz        
   189      0.250629  13 F  pz              204      0.250629  14 F  pz        
     9      0.195124   1 B  pz               20      0.163336   2 N  pz        
   125      0.163336   9 N  pz               96      0.138618   7 C  s         
    21     -0.129046   2 N  s               126     -0.129046   9 N  s         

 Vector   43  Occ=2.000000D+00  E=-3.113929D-01  Symmetry=a2
              MO Center=  6.2D-16,  1.8D-15, -1.7D+00, r^2= 3.2D+00
   Bfn.  Coefficient  Atom+Function         Bfn.  Coefficient  Atom+Function  
  ----- ------------  ---------------      ----- ------------  ---------------
   183      0.442799  13 F  px              198     -0.442799  14 F  px        
   187      0.320338  13 F  px              202     -0.320338  14 F  px        
    64      0.079041   5 C  py              169     -0.079041  12 C  py        
    49      0.069614   4 C  py              154     -0.069614  11 C  py        
    79      0.065542   6 C  py              109     -0.065542   8 C  py        

 Vector   44  Occ=2.000000D+00  E=-2.971417D-01  Symmetry=b2
              MO Center=  9.2D-16, -7.8D-16, -1.7D+00, r^2= 2.7D+00
   Bfn.  Coefficient  Atom+Function         Bfn.  Coefficient  Atom+Function  
  ----- ------------  ---------------      ----- ------------  ---------------
   184      0.375184  13 F  py              199      0.375184  14 F  py        
   185      0.264350  13 F  pz              200     -0.264350  14 F  pz        
   188      0.257495  13 F  py              203      0.257495  14 F  py        
   189      0.179195  13 F  pz              204     -0.179195  14 F  pz        
     8      0.140610   1 B  py               94     -0.090539   7 C  py        

 Vector   45  Occ=2.000000D+00  E=-2.892360D-01  Symmetry=b1
              MO Center=  3.1D-15,  2.5D-15, -1.1D+00, r^2= 3.8D+00
   Bfn.  Coefficient  Atom+Function         Bfn.  Coefficient  Atom+Function  
  ----- ------------  ---------------      ----- ------------  ---------------
   183      0.347832  13 F  px              198      0.347832  14 F  px        
    21      0.236861   2 N  s               126     -0.236861   9 N  s         
   187      0.229906  13 F  px              202      0.229906  14 F  px        
    18      0.200101   2 N  px              123      0.200101   9 N  px        
     7      0.190538   1 B  px               20     -0.165950   2 N  pz        

 Vector   46  Occ=2.000000D+00  E=-2.735761D-01  Symmetry=b2
              MO Center=  9.9D-15,  9.4D-17,  6.2D-01, r^2= 5.6D+00
   Bfn.  Coefficient  Atom+Function         Bfn.  Coefficient  Atom+Function  
  ----- ------------  ---------------      ----- ------------  ---------------
    94      0.344108   7 C  py               98      0.236672   7 C  py        
    34     -0.214382   3 C  py              139     -0.214382  10 C  py        
    79      0.184906   6 C  py              109      0.184906   8 C  py        
    49     -0.149664   4 C  py              154     -0.149664  11 C  py        
    38     -0.139707   3 C  py              143     -0.139707  10 C  py        

 Vector   47  Occ=2.000000D+00  E=-2.356589D-01  Symmetry=b2
              MO Center=  2.7D-16,  3.0D-16,  4.4D-01, r^2= 7.9D+00
   Bfn.  Coefficient  Atom+Function         Bfn.  Coefficient  Atom+Function  
  ----- ------------  ---------------      ----- ------------  ---------------
    19      0.258500   2 N  py              124      0.258500   9 N  py        
    64     -0.243329   5 C  py              169     -0.243329  12 C  py        
    49     -0.221970   4 C  py              154     -0.221970  11 C  py        
    23      0.183647   2 N  py              128      0.183647   9 N  py        
    68     -0.177740   5 C  py              173     -0.177740  12 C  py        

 Vector   48  Occ=2.000000D+00  E=-2.293351D-01  Symmetry=a2
              MO Center= -5.0D-15, -2.3D-15,  5.0D-01, r^2= 7.7D+00
   Bfn.  Coefficient  Atom+Function         Bfn.  Coefficient  Atom+Function  
  ----- ------------  ---------------      ----- ------------  ---------------
    19      0.275343   2 N  py              124     -0.275343   9 N  py        
    64     -0.253356   5 C  py              169      0.253356  12 C  py        
    49     -0.209920   4 C  py              154      0.209920  11 C  py        
    23      0.203197   2 N  py              128     -0.203197   9 N  py        
    68     -0.179647   5 C  py              173      0.179647  12 C  py        

 Vector   49  Occ=2.000000D+00  E=-1.975416D-01  Symmetry=a2
              MO Center= -5.5D-15,  3.7D-17,  4.0D-01, r^2= 7.0D+00
   Bfn.  Coefficient  Atom+Function         Bfn.  Coefficient  Atom+Function  
  ----- ------------  ---------------      ----- ------------  ---------------
    79      0.288129   6 C  py              109     -0.288129   8 C  py        
    34     -0.259104   3 C  py              139      0.259104  10 C  py        
    83      0.206416   6 C  py              113     -0.206416   8 C  py        
    38     -0.192691   3 C  py              143      0.192691  10 C  py        
    49     -0.184840   4 C  py              154      0.184840  11 C  py        

 Vector   50  Occ=0.000000D+00  E=-1.205647D-01  Symmetry=b2
              MO Center= -3.0D-15,  4.5D-16,  7.2D-01, r^2= 6.5D+00
   Bfn.  Coefficient  Atom+Function         Bfn.  Coefficient  Atom+Function  
  ----- ------------  ---------------      ----- ------------  ---------------
    94      0.364440   7 C  py               98      0.325915   7 C  py        
    34      0.243982   3 C  py              139      0.243982  10 C  py        
    64     -0.228070   5 C  py              169     -0.228070  12 C  py        
    38      0.226622   3 C  py              143      0.226622  10 C  py        
    68     -0.208930   5 C  py              173     -0.208930  12 C  py        

 Vector   51  Occ=0.000000D+00  E=-4.314821D-04  Symmetry=a2
              MO Center= -2.2D-14, -9.0D-17,  2.4D-01, r^2= 5.9D+00
   Bfn.  Coefficient  Atom+Function         Bfn.  Coefficient  Atom+Function  
  ----- ------------  ---------------      ----- ------------  ---------------
    23      0.353866   2 N  py              128     -0.353866   9 N  py        
    83     -0.342372   6 C  py              113      0.342372   8 C  py        
    38     -0.337918   3 C  py              143      0.337918  10 C  py        
    19      0.295052   2 N  py              124     -0.295052   9 N  py        
    79     -0.284468   6 C  py              109      0.284468   8 C  py        

 Vector   52  Occ=0.000000D+00  E= 1.519396D-02  Symmetry=b2
              MO Center=  2.2D-14,  1.3D-16,  1.6D-01, r^2= 9.6D+00
   Bfn.  Coefficient  Atom+Function         Bfn.  Coefficient  Atom+Function  
  ----- ------------  ---------------      ----- ------------  ---------------
    53      0.442176   4 C  py              158      0.442176  11 C  py        
    38     -0.393267   3 C  py              143     -0.393267  10 C  py        
    49      0.306393   4 C  py              154      0.306393  11 C  py        
    34     -0.275086   3 C  py              139     -0.275086  10 C  py        
    68     -0.229374   5 C  py              173     -0.229374  12 C  py        

 Vector   53  Occ=0.000000D+00  E= 3.614501D-02  Symmetry=a2
              MO Center= -7.5D-14,  9.5D-17,  7.6D-01, r^2= 9.8D+00
   Bfn.  Coefficient  Atom+Function         Bfn.  Coefficient  Atom+Function  
  ----- ------------  ---------------      ----- ------------  ---------------
    53      0.454658   4 C  py              158     -0.454658  11 C  py        
    68     -0.429519   5 C  py              173      0.429519  12 C  py        
    49      0.295260   4 C  py              154     -0.295260  11 C  py        
    64     -0.289025   5 C  py              169      0.289025  12 C  py        
    38     -0.275526   3 C  py              143      0.275526  10 C  py        

 Vector   54  Occ=0.000000D+00  E= 7.835741D-02  Symmetry=b2
              MO Center=  7.8D-14, -1.1D-16,  1.2D+00, r^2= 4.6D+00
   Bfn.  Coefficient  Atom+Function         Bfn.  Coefficient  Atom+Function  
  ----- ------------  ---------------      ----- ------------  ---------------
    98     -0.597504   7 C  py               83      0.553753   6 C  py        
   113      0.553753   8 C  py               68     -0.401790   5 C  py        
   173     -0.401790  12 C  py               79      0.373868   6 C  py        
   109      0.373868   8 C  py               94     -0.328396   7 C  py        
    64     -0.207048   5 C  py              169     -0.207048  12 C  py        

 Vector   55  Occ=0.000000D+00  E= 9.226069D-02  Symmetry=a1
              MO Center=  8.4D-16,  8.0D-16,  1.7D+00, r^2= 1.0D+01
   Bfn.  Coefficient  Atom+Function         Bfn.  Coefficient  Atom+Function  
  ----- ------------  ---------------      ----- ------------  ---------------
[...]

  No.       Tag          Charge          X              Y              Z
 ---- ---------------- ---------- -------------- -------------- --------------
    1 B                    5.0000     0.00000000     0.00000000    -1.23028625
    2 N                    7.0000    -1.25200939     0.00000000    -0.29117330
    3 C                    6.0000    -2.55102894     0.00000000    -0.67203740
    4 C                    6.0000    -3.39395367     0.00000000     0.46560924
    5 C                    6.0000    -2.56158984     0.00000000     1.58764349
    6 C                    6.0000    -1.21945452     0.00000000     1.11091938
    7 C                    6.0000     0.00000000     0.00000000     1.79289367
    8 C                    6.0000     1.21945452     0.00000000     1.11091938
    9 N                    7.0000     1.25200939     0.00000000    -0.29117330
   10 C                    6.0000     2.55102894     0.00000000    -0.67203740
   11 C                    6.0000     3.39395367     0.00000000     0.46560924
   12 C                    6.0000     2.56158984     0.00000000     1.58764349
   13 F                    9.0000     0.00000000     1.15053233    -2.02981428
   14 F                    9.0000     0.00000000    -1.15053233    -2.02981428
   15 H                    1.0000    -2.82583080     0.00000000    -1.72750679
   16 H                    1.0000    -4.48349804     0.00000000     0.44554445
   17 H                    1.0000    -2.85205402     0.00000000     2.63848577
   18 H                    1.0000     0.00000000     0.00000000     2.88678793
   19 H                    1.0000     2.82583080     0.00000000    -1.72750679
   20 H                    1.0000     4.48349804     0.00000000     0.44554445
   21 H                    1.0000     2.85205402     0.00000000     2.63848577

      Atomic Mass 
      ----------- 

      B                 11.009310
      N                 14.003070
      C                 12.000000
      F                 18.998400
      H                  1.007825


 Effective nuclear repulsion energy (a.u.)     855.4482852614

            Nuclear Dipole moment (a.u.) 
            ----------------------------
        X                 Y               Z
 ---------------- ---------------- ----------------
     0.0000000000     0.0000000000    -0.9480777762

      Symmetry information
      --------------------

 Group name             C2v       
 Group number             16
 Group order               4
 No. of unique centers    12

      Symmetry unique atoms

     1    2    3    4    5    6    7   13   15   16   17   18


                Final and change from initial internal coordinates
                --------------------------------------------------



                                Z-matrix (autoz)
                                -------- 

 Units are Angstrom for bonds and degrees for angles

      Type          Name      I     J     K     L     M      Value       Change
      ----------- --------  ----- ----- ----- ----- ----- ---------- ----------
    1 Stretch                  1     2                       1.56508    0.01476
    2 Stretch                  1     9                       1.56508    0.01476
    3 Stretch                  1    13                       1.40106    0.02468
    4 Stretch                  1    14                       1.40106    0.02468
    5 Stretch                  2     3                       1.35370    0.02744
    6 Stretch                  2     6                       1.40247    0.02270
    7 Stretch                  3     4                       1.41590    0.01337
    8 Stretch                  3    15                       1.09066    0.01740
    9 Stretch                  4     5                       1.39706    0.02128
   10 Stretch                  4    16                       1.08973    0.01782
   11 Stretch                  5     6                       1.42429    0.00780
   12 Stretch                  5    17                       1.09025    0.01793
   13 Stretch                  6     7                       1.39720    0.01191
   14 Stretch                  7     8                       1.39720    0.01191
   15 Stretch                  7    18                       1.09389    0.01429
   16 Stretch                  8     9                       1.40247    0.02270
   17 Stretch                  8    12                       1.42429    0.00780
   18 Stretch                  9    10                       1.35370    0.02744
   19 Stretch                 10    11                       1.41590    0.01337
   20 Stretch                 10    19                       1.09066    0.01740
   21 Stretch                 11    12                       1.39706    0.02128
   22 Stretch                 11    20                       1.08973    0.01782
   23 Stretch                 12    21                       1.09025    0.01793
   24 Bend                     1     2     3               126.78621   -0.14548
   25 Bend                     1     2     6               125.54290    0.74512
   26 Bend                     1     9     8               125.54290    0.74512
   27 Bend                     1     9    10               126.78621   -0.14548
   28 Bend                     2     1     9               106.25400   -0.75086
   29 Bend                     2     1    13               110.02440    0.15381
   30 Bend                     2     1    14               110.02440    0.15381
   31 Bend                     2     3     4               110.19533    0.01450
   32 Bend                     2     3    15               120.93432    0.09590
   33 Bend                     2     6     5               108.22485    0.38586
   34 Bend                     2     6     7               120.54600   -0.68309
   35 Bend                     3     2     6               107.67089   -0.59964
   36 Bend                     3     4     5               106.89457    0.04450
   37 Bend                     3     4    16               125.48110   -0.14114
   38 Bend                     4     3    15               128.87035   -0.11040
   39 Bend                     4     5     6               107.01435    0.15478
   40 Bend                     4     5    17               127.97932    0.09143
   41 Bend                     5     4    16               127.62433    0.09664
   42 Bend                     5     6     7               131.22915    0.29723
   43 Bend                     6     5    17               125.00632   -0.24621
   44 Bend                     6     7     8               121.56820    0.62681
   45 Bend                     6     7    18               119.21590   -0.31341
   46 Bend                     7     8     9               120.54600   -0.68309
   47 Bend                     7     8    12               131.22915    0.29723
   48 Bend                     8     7    18               119.21590   -0.31341
   49 Bend                     8     9    10               107.67089   -0.59964
   50 Bend                     8    12    11               107.01435    0.15478
   51 Bend                     8    12    21               125.00632   -0.24621
   52 Bend                     9     1    13               110.02440    0.15381
   53 Bend                     9     1    14               110.02440    0.15381
   54 Bend                     9     8    12               108.22485    0.38586
   55 Bend                     9    10    11               110.19533    0.01450
   56 Bend                     9    10    19               120.93432    0.09590
   57 Bend                    10    11    12               106.89457    0.04450
   58 Bend                    10    11    20               125.48110   -0.14114
   59 Bend                    11    10    19               128.87035   -0.11040
   60 Bend                    11    12    21               127.97932    0.09143
   61 Bend                    12    11    20               127.62433    0.09664
   62 Bend                    13     1    14               110.40757    0.11153
   63 Torsion                  1     2     3     4         180.00000    0.00000
   64 Torsion                  1     2     3    15           0.00000    0.00000
   65 Torsion                  1     2     6     5         180.00000    0.00000
   66 Torsion                  1     2     6     7           0.00000    0.00000
   67 Torsion                  1     9     8     7           0.00000    0.00000
   68 Torsion                  1     9     8    12         180.00000    0.00000
   69 Torsion                  1     9    10    11         180.00000    0.00000
   70 Torsion                  1     9    10    19           0.00000    0.00000
   71 Torsion                  2     1     9     8           0.00000    0.00000
   72 Torsion                  2     1     9    10         180.00000    0.00000
   73 Torsion                  2     3     4     5           0.00000    0.00000
   74 Torsion                  2     3     4    16         180.00000    0.00000
   75 Torsion                  2     6     5     4          -0.00000    0.00000
   76 Torsion                  2     6     5    17         180.00000    0.00000
   77 Torsion                  2     6     7     8           0.00000    0.00000
   78 Torsion                  2     6     7    18         180.00000    0.00000
   79 Torsion                  3     2     1     9         180.00000    0.00000
   80 Torsion                  3     2     1    13          60.92973    0.16960
   81 Torsion                  3     2     1    14         -60.92973   -0.16960
   82 Torsion                  3     2     6     5           0.00000    0.00000
   83 Torsion                  3     2     6     7         180.00000    0.00000
   84 Torsion                  3     4     5     6           0.00000    0.00000
   85 Torsion                  3     4     5    17         180.00000    0.00000
   86 Torsion                  4     3     2     6           0.00000    0.00000
   87 Torsion                  4     5     6     7         180.00000    0.00000
   88 Torsion                  5     4     3    15         180.00000    0.00000
   89 Torsion                  5     6     7     8         180.00000    0.00000
   90 Torsion                  5     6     7    18           0.00000    0.00000
   91 Torsion                  6     2     1     9          -0.00000    0.00000
   92 Torsion                  6     2     1    13        -119.07027    0.16960
   93 Torsion                  6     2     1    14         119.07027   -0.16960
   94 Torsion                  6     2     3    15         180.00000    0.00000
   95 Torsion                  6     5     4    16         180.00000    0.00000
   96 Torsion                  6     7     8     9           0.00000    0.00000
   97 Torsion                  6     7     8    12         180.00000    0.00000
   98 Torsion                  7     6     5    17           0.00000    0.00000
   99 Torsion                  7     8     9    10         180.00000    0.00000
  100 Torsion                  7     8    12    11         180.00000    0.00000
  101 Torsion                  7     8    12    21           0.00000    0.00000
  102 Torsion                  8     9     1    13         119.07027   -0.16960
  103 Torsion                  8     9     1    14        -119.07027    0.16960
  104 Torsion                  8     9    10    11           0.00000    0.00000
  105 Torsion                  8     9    10    19         180.00000    0.00000
  106 Torsion                  8    12    11    10           0.00000    0.00000
  107 Torsion                  8    12    11    20         180.00000    0.00000
  108 Torsion                  9     8     7    18         180.00000    0.00000
  109 Torsion                  9     8    12    11           0.00000    0.00000
  110 Torsion                  9     8    12    21         180.00000    0.00000
  111 Torsion                  9    10    11    12           0.00000    0.00000
  112 Torsion                  9    10    11    20         180.00000    0.00000
  113 Torsion                 10     9     1    13         -60.92973   -0.16960
  114 Torsion                 10     9     1    14          60.92973    0.16960
  115 Torsion                 10     9     8    12           0.00000    0.00000
  116 Torsion                 10    11    12    21         180.00000    0.00000
  117 Torsion                 12     8     7    18           0.00000    0.00000
  118 Torsion                 12    11    10    19         180.00000    0.00000
  119 Torsion                 15     3     4    16          -0.00000    0.00000
  120 Torsion                 16     4     5    17           0.00000    0.00000
  121 Torsion                 19    10    11    20           0.00000    0.00000
  122 Torsion                 20    11    12    21           0.00000    0.00000

 ==============================================================================
                                internuclear distances
 ------------------------------------------------------------------------------
       center one      |      center two      | atomic units |  angstroms
 ------------------------------------------------------------------------------
    2 N                |   1 B                |     2.95756  |     1.56508
    3 C                |   2 N                |     2.55813  |     1.35370
    4 C                |   3 C                |     2.67566  |     1.41590
    5 C                |   4 C                |     2.64007  |     1.39706
    6 C                |   2 N                |     2.65029  |     1.40247
    6 C                |   5 C                |     2.69151  |     1.42429
    7 C                |   6 C                |     2.64032  |     1.39720
    8 C                |   7 C                |     2.64032  |     1.39720
    9 N                |   1 B                |     2.95756  |     1.56508
    9 N                |   8 C                |     2.65029  |     1.40247
   10 C                |   9 N                |     2.55813  |     1.35370
   11 C                |  10 C                |     2.67566  |     1.41590
   12 C                |   8 C                |     2.69151  |     1.42429
   12 C                |  11 C                |     2.64007  |     1.39706
   13 F                |   1 B                |     2.64762  |     1.40106
   14 F                |   1 B                |     2.64762  |     1.40106
   15 H                |   3 C                |     2.06104  |     1.09066
   16 H                |   4 C                |     2.05929  |     1.08973
   17 H                |   5 C                |     2.06027  |     1.09025
   18 H                |   7 C                |     2.06716  |     1.09389
   19 H                |  10 C                |     2.06104  |     1.09066
   20 H                |  11 C                |     2.05929  |     1.08973
   21 H                |  12 C                |     2.06027  |     1.09025
 ------------------------------------------------------------------------------
                         number of included internuclear distances:         23
 ==============================================================================



 ==============================================================================
                                 internuclear angles
 ------------------------------------------------------------------------------
        center 1       |       center 2       |       center 3       |  degrees
 ------------------------------------------------------------------------------
    2 N                |   1 B                |   9 N                |   106.25
    2 N                |   1 B                |  13 F                |   110.02
    2 N                |   1 B                |  14 F                |   110.02
    9 N                |   1 B                |  13 F                |   110.02
    9 N                |   1 B                |  14 F                |   110.02
   13 F                |   1 B                |  14 F                |   110.41
    1 B                |   2 N                |   3 C                |   126.79
    1 B                |   2 N                |   6 C                |   125.54
    3 C                |   2 N                |   6 C                |   107.67
    2 N                |   3 C                |   4 C                |   110.20
    2 N                |   3 C                |  15 H                |   120.93
    4 C                |   3 C                |  15 H                |   128.87
    3 C                |   4 C                |   5 C                |   106.89
    3 C                |   4 C                |  16 H                |   125.48
    5 C                |   4 C                |  16 H                |   127.62
    4 C                |   5 C                |   6 C                |   107.01
    4 C                |   5 C                |  17 H                |   127.98
    6 C                |   5 C                |  17 H                |   125.01
    2 N                |   6 C                |   5 C                |   108.22
    2 N                |   6 C                |   7 C                |   120.55
    5 C                |   6 C                |   7 C                |   131.23
    6 C                |   7 C                |   8 C                |   121.57
    6 C                |   7 C                |  18 H                |   119.22
    8 C                |   7 C                |  18 H                |   119.22
    7 C                |   8 C                |   9 N                |   120.55
    7 C                |   8 C                |  12 C                |   131.23
    9 N                |   8 C                |  12 C                |   108.22
    1 B                |   9 N                |   8 C                |   125.54
    1 B                |   9 N                |  10 C                |   126.79
    8 C                |   9 N                |  10 C                |   107.67
    9 N                |  10 C                |  11 C                |   110.20
    9 N                |  10 C                |  19 H                |   120.93
   11 C                |  10 C                |  19 H                |   128.87
   10 C                |  11 C                |  12 C                |   106.89
   10 C                |  11 C                |  20 H                |   125.48
   12 C                |  11 C                |  20 H                |   127.62
    8 C                |  12 C                |  11 C                |   107.01
    8 C                |  12 C                |  21 H                |   125.01
   11 C                |  12 C                |  21 H                |   127.98
 ------------------------------------------------------------------------------
                            number of included internuclear angles:         39
 ==============================================================================




 Task  times  cpu:      759.6s     wall:      700.9s


                                NWChem Input Module
                                -------------------


 ------------------------------------------------------------------------
 tddft_input: unknown directive                   0
 ------------------------------------------------------------------------
 ------------------------------------------------------------------------
  current input line : 
    54:   target_mult 1
 ------------------------------------------------------------------------
 ------------------------------------------------------------------------
 There is an error in the input file
 ------------------------------------------------------------------------
 For more information see the NWChem manual at https://github.com/nwchemgit/nwchem/wiki


 For further details see manual section:                                                                                                                                                                                                                                                                
