[Molden Format]
[Atoms] AU
   O     1    8      0.2138926580     0.0000000000     0.0000000000
   H     2    1     -0.8953865875     0.0000000000     1.4446903997
   H     3    1     -0.8953865875     0.0000000000    -1.4446903997
[GTO]
    1  0
  s      6  0
     27032.3826310000         0.0002172630
      4052.3871392000         0.0016838662
       922.3272271000         0.0087395616
       261.2407098900         0.0352399688
        85.3546413510         0.1115351912
        31.0350352450         0.2558895396
  s      2  0
        12.2608607280         0.3976873090
         4.9987076005         0.2462784943
  s      1  0
         1.1703108158         1.0000000000
  s      1  0
         0.4647474099         1.0000000000
  s      1  0
         0.1850453636         1.0000000000
  p      4  0
        63.2749548010         0.0060685103
        14.6270493790         0.0419125758
         4.4501223456         0.1615384109
         1.5275799647         0.3570695131
  p      1  0
         0.5293511794         1.0000000000
  p      1  0
         0.1747842127         1.0000000000
  d      1  0
         2.3140000000         1.0000000000
  d      1  0
         0.6450000000         1.0000000000
  f      1  0
         1.4280000000         1.0000000000

    2  0
  s      3  0
        34.0613410000         0.0060251978
         5.1235746000         0.0450210940
         1.1646626000         0.2018972600
  s      1  0
         0.3272304100         1.0000000000
  s      1  0
         0.1030724100         1.0000000000
  p      1  0
         0.8000000000         1.0000000000

    3  0
  s      3  0
        34.0613410000         0.0060251978
         5.1235746000         0.0450210940
         1.1646626000         0.2018972600
  s      1  0
         0.3272304100         1.0000000000
  s      1  0
         0.1030724100         1.0000000000
  p      1  0
         0.8000000000         1.0000000000

[5D]
[9G]
[MO]
Sym= a'   
Ene=  -0.19128983687063E+02
Spin= Alpha
Occup=       2.0000000000
     1    0.435059861846
     2    0.639765083032
     3    0.034158130350
     4   -0.022081330395
     5    0.009022516970
     6   -0.001718350163
     7    0.000000000000
     8    0.000000000000
     9    0.002898956137
    10   -0.000000000008
    11   -0.000000000000
    12   -0.001087998427
    13    0.000000000013
    14    0.000000000000
    15    0.000145322618
    16   -0.000000000000
    17   -0.000000000000
    18    0.000121113786
    19   -0.000000000001
    20   -0.000739816778
    21    0.000000000000
    22    0.000000000000
    23   -0.000587062599
    24   -0.000000000000
    25   -0.000000000000
    26    0.000361658823
    27    0.000000000000
    28   -0.000000000000
    29    0.000000000000
    30    0.000088848039
    31    0.000000000001
    32    0.000838258999
    33    0.001572728993
    34   -0.001869015095
    35    0.000629286502
    36   -0.000000000002
    37   -0.000890202494
    38    0.000838258999
    39    0.001572728993
    40   -0.001869015095
    41    0.000629286502
    42   -0.000000000002
    43    0.000890202494
Sym= a'   
Ene=  -0.10145057779692E+01
Spin= Alpha
Occup=       2.0000000000
     1   -0.098001592909
     2   -0.230383979568
     3    0.336366660793
     4    0.437659138876
     5    0.163888606134
     6   -0.083809532555
     7    0.000000000370
     8    0.000000000000
     9   -0.070540673583
    10   -0.000000000933
    11    0.000000000000
    12   -0.010454448468
    13    0.000000002161
    14    0.000000000000
    15    0.003186561651
    16    0.000000000000
    17   -0.000000000000
    18    0.003264653113
    19   -0.000000000031
    20    0.006677614592
    21   -0.000000000000
    22   -0.000000000000
    23    0.008743686309
    24   -0.000000000091
    25    0.000000000000
    26   -0.004770228259
    27   -0.000000000011
    28    0.000000000000
    29    0.000000000000
    30   -0.001592484549
    31    0.000000000083
    32    0.093356547764
    33    0.066432450113
    34    0.006318985175
    35    0.008460827406
    36   -0.000000000153
    37   -0.014797068845
    38    0.093356547764
    39    0.066432450113
    40    0.006318985175
    41    0.008460827406
    42   -0.000000000153
    43    0.014797068845
Sym= a"   
Ene=  -0.53383029214522E+00
Spin= Alpha
Occup=       2.0000000000
     1    0.000000000000
     2    0.000000000000
     3   -0.000000000000
     4   -0.000000000000
     5   -0.000000000000
     6    0.000000000000
     7    0.000000000000
     8    0.387228882996
     9   -0.000000000000
    10    0.000000000000
    11    0.299053472995
    12   -0.000000000000
    13    0.000000000000
    14    0.133647916925
    15    0.000000000000
    16   -0.012072121056
    17    0.000000000091
    18    0.000000000000
    19    0.000000000000
    20    0.000000000000
    21   -0.024613738589
    22   -0.000000000086
    23    0.000000000000
    24    0.000000000000
    25    0.003143025138
    26   -0.000000000000
    27   -0.000000000000
    28    0.003826883335
    29    0.000000000249
    30   -0.000000000000
    31   -0.000000000000
    32    0.147757300438
    33    0.176938856658
    34    0.058859522872
    35    0.017662734370
    36    0.000000000169
    37   -0.008793454374
    38   -0.147757300438
    39   -0.176938856658
    40   -0.058859522872
    41   -0.017662734370
    42   -0.000000000169
    43   -0.008793454374
Sym= a'   
Ene=  -0.39564897962194E+00
Spin= Alpha
Occup=       2.0000000000
     1   -0.035463163974
     2   -0.084771185548
     3    0.132942653166
     4    0.184041589077
     5    0.219550109982
     6    0.418353772834
     7    0.000000000497
     8    0.000000000000
     9    0.322911642456
    10   -0.000000000036
    11    0.000000000000
    12    0.246839782851
    13    0.000000001146
    14    0.000000000000
    15   -0.000066271360
    16   -0.000000000000
    17    0.000000000000
    18   -0.005250955984
    19    0.000000000075
    20    0.012314859616
    21   -0.000000000000
    22    0.000000000000
    23   -0.020778491565
    24   -0.000000000099
    25    0.000000000000
    26    0.002244928774
    27   -0.000000000136
    28    0.000000000000
    29   -0.000000000000
    30    0.002864417382
    31    0.000000000526
    32   -0.086972528298
    33   -0.118245378135
    34   -0.035758235214
    35    0.008649936211
    36   -0.000000000058
    37    0.016575564864
    38   -0.086972528298
    39   -0.118245378135
    40   -0.035758235214
    41    0.008649936211
    42   -0.000000000058
    43   -0.016575564864
Sym= a'   
Ene=  -0.32096042963167E+00
Spin= Alpha
Occup=       2.0000000000
     1    0.000000000010
     2   -0.000000000443
     3    0.000000004906
     4   -0.000000010130
     5    0.000000002620
     6   -0.000000000646
     7    0.474998316958
     8   -0.000000000000
     9    0.000000001319
    10    0.381424861091
    11   -0.000000000000
    12    0.000000000038
    13    0.344363932337
    14    0.000000000000
    15    0.000000000020
    16   -0.000000000000
    17   -0.000000000000
    18    0.000000000005
    19   -0.004193461620
    20   -0.000000000802
    21    0.000000000000
    22    0.000000000000
    23   -0.000000000561
    24   -0.024385691659
    25   -0.000000000000
    26    0.000000000135
    27    0.004227689944
    28    0.000000000000
    29   -0.000000000000
    30   -0.000000000439
    31    0.003072905630
    32    0.000000000581
    33    0.000000001912
    34   -0.000000000844
    35    0.000000000773
    36    0.024184388120
    37   -0.000000001054
    38    0.000000000581
    39    0.000000001912
    40   -0.000000000844
    41    0.000000000773
    42    0.024184388120
    43    0.000000001054
Sym= a'   
Ene=   0.22693577557508E-01
Spin= Alpha
Occup=       0.0000000000
     1   -0.034675943553
     2   -0.086931393888
     3    0.191175709407
     4   -0.003582584855
     5    1.115758094631
     6   -0.152560418223
     7   -0.000000000271
     8    0.000000000000
     9   -0.095335327843
    10   -0.000000000323
    11    0.000000000000
    12   -0.339909378471
    13    0.000000000629
    14    0.000000000000
    15   -0.002068385760
    16   -0.000000000000
    17    0.000000000000
    18    0.000386141158
    19    0.000000000071
    20   -0.011273145617
    21   -0.000000000000
    22   -0.000000000000
    23    0.002243325359
    24   -0.000000000060
    25    0.000000000000
    26   -0.000424034094
    27    0.000000000220
    28    0.000000000000
    29    0.000000000000
    30   -0.000787838601
    31   -0.000000000568
    32   -0.040916010189
    33   -0.082282655557
    34   -0.930965909650
    35    0.019649110664
    36   -0.000000000206
    37   -0.028976260360
    38   -0.040916010189
    39   -0.082282655557
    40   -0.930965909650
    41    0.019649110664
    42   -0.000000000206
    43    0.028976260360
Sym= a"   
Ene=   0.10078006487925E+00
Spin= Alpha
Occup=       0.0000000000
     1   -0.000000000000
     2   -0.000000000000
     3    0.000000000000
     4    0.000000000000
     5    0.000000000000
     6   -0.000000000000
     7   -0.000000000000
     8   -0.254720616420
     9   -0.000000000000
    10   -0.000000000000
    11   -0.118937865340
    12   -0.000000000000
    13   -0.000000000000
    14   -0.660840458621
    15    0.000000000000
    16   -0.000964245987
    17    0.000000000106
    18    0.000000000000
    19    0.000000000000
    20    0.000000000000
    21   -0.027144714331
    22   -0.000000000158
    23    0.000000000000
    24    0.000000000000
    25   -0.002260872148
    26   -0.000000000000
    27   -0.000000000000
    28    0.001967064015
    29    0.000000000404
    30   -0.000000000000
    31   -0.000000000000
    32    0.036229723859
    33    0.012495337985
    34    1.624931372600
    35   -0.033520532621
    36    0.000000000148
    37    0.036578890430
    38   -0.036229723859
    39   -0.012495337985
    40   -1.624931372600
    41    0.033520532621
    42   -0.000000000148
    43    0.036578890430
Sym= a"   
Ene=   0.35328835500274E+00
Spin= Alpha
Occup=       0.0000000000
     1    0.000000000000
     2    0.000000000000
     3    0.000000000000
     4   -0.000000000000
     5    0.000000000000
     6   -0.000000000000
     7    0.000000000000
     8   -0.104251762640
     9   -0.000000000000
    10    0.000000000000
    11   -0.331950256332
    12    0.000000000000
    13   -0.000000000000
    14   -1.273603050939
    15   -0.000000000000
    16   -0.032807781394
    17   -0.000000000009
    18    0.000000000000
    19   -0.000000000000
    20   -0.000000000000
    21    0.129799219376
    22    0.000000000426
    23   -0.000000000000
    24    0.000000000000
    25   -0.004823085963
    26    0.000000000000
    27    0.000000000000
    28   -0.012548530400
    29   -0.000000002181
    30    0.000000000000
    31    0.000000000000
    32    0.122531449428
    33    1.459783071142
    34   -0.480422230665
    35    0.049968897880
    36   -0.000000000441
    37   -0.092774160350
    38   -0.122531449428
    39   -1.459783071142
    40    0.480422230665
    41   -0.049968897880
    42    0.000000000441
    43   -0.092774160350
Sym= a'   
Ene=   0.39990236551007E+00
Spin= Alpha
Occup=       0.0000000000
     1    0.032705391833
     2    0.070915110801
     3    0.026653310568
     4   -0.803892070383
     5   -0.407760126073
     6   -0.159687877245
     7   -0.000000006659
     8    0.000000000000
     9   -0.260720528085
    10   -0.000000015243
    11    0.000000000000
    12    1.551358762567
    13    0.000000026612
    14    0.000000000000
    15    0.009443448009
    16    0.000000000000
    17    0.000000000000
    18    0.013387204585
    19    0.000000000281
    20   -0.031325825899
    21   -0.000000000000
    22   -0.000000000000
    23   -0.052476295452
    24   -0.000000000554
    25    0.000000000000
    26    0.012585842651
    27   -0.000000000474
    28    0.000000000000
    29    0.000000000000
    30    0.002634746686
    31    0.000000002630
    32    0.057233515261
    33    1.156950789811
    34   -0.236926284786
    35    0.051959621112
    36   -0.000000000655
    37   -0.064984855638
    38    0.057233515261
    39    1.156950789811
    40   -0.236926284786
    41    0.051959621112
    42   -0.000000000655
    43    0.064984855638
Sym= a'   
Ene=   0.41561892776730E+00
Spin= Alpha
Occup=       0.0000000000
     1   -0.000000001133
     2   -0.000000004267
     3    0.000000020868
     4   -0.000000020458
     5    0.000000014405
     6    0.000000003114
     7   -0.318858946997
     8   -0.000000000000
     9    0.000000013503
    10   -0.702732912837
    11   -0.000000000000
    12   -0.000000031882
    13    1.233812300187
    14   -0.000000000000
    15   -0.000000000036
    16   -0.000000000000
    17   -0.000000000000
    18   -0.000000000195
    19    0.006309945168
    20   -0.000000002480
    21    0.000000000000
    22    0.000000000000
    23   -0.000000001124
    24   -0.006148075512
    25   -0.000000000000
    26    0.000000000252
    27   -0.001411927461
    28   -0.000000000000
    29    0.000000000000
    30   -0.000000001774
    31   -0.000884800380
    32    0.000000001148
    33   -0.000000015425
    34    0.000000002916
    35    0.000000002138
    36   -0.006841539490
    37   -0.000000002955
    38    0.000000001148
    39   -0.000000015425
    40    0.000000002916
    41    0.000000002138
    42   -0.006841539490
    43    0.000000002955
Sym= a'   
Ene=   0.43129854480511E+00
Spin= Alpha
Occup=       0.0000000000
     1    0.015131797615
     2    0.034802598319
     3    0.006661787229
     4   -0.357204782979
     5   -0.545913416701
     6    0.300154021234
     7    0.000000000150
     8    0.000000000000
     9    0.720615018740
    10    0.000000000805
    11    0.000000000000
    12   -0.204186480185
    13   -0.000000000714
    14    0.000000000000
    15    0.015014971985
    16    0.000000000000
    17   -0.000000000000
    18    0.003829259012
    19   -0.000000000086
    20   -0.014797328528
    21   -0.000000000000
    22   -0.000000000000
    23   -0.026983363311
    24    0.000000000159
    25    0.000000000000
    26    0.014008974442
    27    0.000000000524
    28    0.000000000000
    29    0.000000000000
    30    0.003175193333
    31   -0.000000001027
    32    0.104936171821
    33    1.255873215790
    34   -0.609597847244
    35    0.054855650057
    36   -0.000000000177
    37   -0.032475066205
    38    0.104936171821
    39    1.255873215790
    40   -0.609597847244
    41    0.054855650057
    42   -0.000000000177
    43    0.032475066205
Sym= a"   
Ene=   0.56810401149675E+00
Spin= Alpha
Occup=       0.0000000000
     1   -0.000000000000
     2   -0.000000000000
     3   -0.000000000000
     4    0.000000000000
     5   -0.000000000000
     6   -0.000000000000
     7   -0.000000000000
     8   -0.354995998395
     9   -0.000000000000
    10   -0.000000000000
    11   -0.766098979593
    12    0.000000000000
    13    0.000000000000
    14    2.002060193932
    15    0.000000000000
    16    0.009163410776
    17    0.000000000133
    18    0.000000000000
    19   -0.000000000000
    20   -0.000000000000
    21   -0.053088518759
    22   -0.000000000389
    23   -0.000000000000
    24   -0.000000000000
    25   -0.000943150482
    26    0.000000000000
    27   -0.000000000000
    28    0.001576061623
    29    0.000000001621
    30    0.000000000000
    31    0.000000000000
    32    0.067227457853
    33    0.144942836254
    34   -1.654772863346
    35   -0.028055518869
    36    0.000000000541
    37    0.024525897393
    38   -0.067227457853
    39   -0.144942836254
    40    1.654772863346
    41    0.028055518869
    42   -0.000000000541
    43    0.024525897393
Sym= a'   
Ene=   0.59404553657630E+00
Spin= Alpha
Occup=       0.0000000000
     1    0.051738170919
     2    0.107220301042
     3    0.099293414293
     4   -2.257906879076
     5    4.835517360344
     6    0.081184638983
     7   -0.000000000507
     8   -0.000000000000
     9    0.021371305718
    10   -0.000000000821
    11   -0.000000000000
    12   -1.285238284470
    13    0.000000001549
    14    0.000000000000
    15   -0.012426694873
    16    0.000000000000
    17    0.000000000000
    18   -0.011167465262
    19   -0.000000000078
    20    0.028685823702
    21   -0.000000000000
    22   -0.000000000000
    23    0.044038641592
    24    0.000000000087
    25   -0.000000000000
    26   -0.012006529635
    27   -0.000000000300
    28    0.000000000000
    29    0.000000000000
    30   -0.002181029876
    31   -0.000000000575
    32    0.025286950544
    33   -0.888156450370
    34   -0.995890425265
    35   -0.064342708659
    36    0.000000000170
    37    0.058260658175
    38    0.025286950544
    39   -0.888156450370
    40   -0.995890425265
    41   -0.064342708659
    42    0.000000000170
    43   -0.058260658175
Sym= a'   
Ene=   0.11632076944920E+01
Spin= Alpha
Occup=       0.0000000000
     1    0.003434892078
     2    0.008937743239
     3   -0.036362549555
     4   -0.073213818736
     5    0.891200641294
     6   -0.080495196999
     7   -0.000000000243
     8   -0.000000000000
     9   -0.155871560450
    10   -0.000000000054
    11   -0.000000000000
    12   -0.551987152044
    13    0.000000000187
    14   -0.000000000000
    15    0.010375654819
    16   -0.000000000000
    17   -0.000000000000
    18   -0.005028001952
    19   -0.000000000053
    20    0.373873237052
    21    0.000000000000
    22   -0.000000000000
    23   -0.376439583706
    24    0.000000000196
    25   -0.000000000000
    26   -0.008218611124
    27    0.000000000043
    28    0.000000000000
    29   -0.000000000000
    30   -0.001898356039
    31   -0.000000000808
    32    0.037398244940
    33   -0.576306948897
    34   -0.045387640887
    35    0.302845826060
    36    0.000000000230
    37    0.298162537695
    38    0.037398244940
    39   -0.576306948897
    40   -0.045387640887
    41    0.302845826060
    42    0.000000000230
    43   -0.298162537695
Sym= a"   
Ene=   0.11861576779625E+01
Spin= Alpha
Occup=       0.0000000000
     1    0.000000000000
     2    0.000000000000
     3   -0.000000000000
     4    0.000000000000
     5    0.000000000000
     6   -0.000000000000
     7   -0.000000000000
     8   -0.000000000085
     9   -0.000000000000
    10    0.000000000000
    11    0.000000000260
    12   -0.000000000000
    13   -0.000000000000
    14    0.000000000394
    15    0.000000000000
    16   -0.000000000149
    17    0.008098984494
    18    0.000000000000
    19   -0.000000000000
    20    0.000000000000
    21   -0.000000000236
    22    0.549260655572
    23   -0.000000000000
    24   -0.000000000000
    25   -0.000000000035
    26   -0.000000000000
    27   -0.000000000000
    28   -0.000000000023
    29    0.009985517918
    30   -0.000000000000
    31    0.000000000000
    32    0.000000000754
    33   -0.000000001759
    34    0.000000000793
    35   -0.000000000076
    36    0.419059070931
    37   -0.000000000044
    38   -0.000000000754
    39    0.000000001759
    40   -0.000000000793
    41    0.000000000076
    42   -0.419059070931
    43   -0.000000000044
Sym= a'   
Ene=   0.12908227939308E+01
Spin= Alpha
Occup=       0.0000000000
     1   -0.000000000149
     2   -0.000000000774
     3    0.000000006104
     4   -0.000000011040
     5    0.000000004313
     6   -0.000000000166
     7    0.097246006665
     8   -0.000000000000
     9    0.000000001887
    10    0.053064315334
    11   -0.000000000000
    12   -0.000000000350
    13    0.202096912333
    14   -0.000000000000
    15    0.000000000042
    16   -0.000000000000
    17    0.000000000000
    18    0.000000000081
    19    0.000628150805
    20   -0.000000000844
    21    0.000000000000
    22    0.000000000000
    23   -0.000000000719
    24    0.680431450734
    25   -0.000000000000
    26    0.000000000111
    27    0.012798557123
    28   -0.000000000000
    29   -0.000000000000
    30   -0.000000000399
    31   -0.004181732618
    32    0.000000001018
    33    0.000000000910
    34   -0.000000000572
    35    0.000000000820
    36   -0.375862756180
    37   -0.000000001099
    38    0.000000001018
    39    0.000000000910
    40   -0.000000000572
    41    0.000000000820
    42   -0.375862756180
    43    0.000000001099
Sym= a"   
Ene=   0.15224160820707E+01
Spin= Alpha
Occup=       0.0000000000
     1   -0.000000000000
     2   -0.000000000000
     3    0.000000000000
     4   -0.000000000000
     5    0.000000000000
     6    0.000000000000
     7    0.000000000000
     8    0.111792582150
     9   -0.000000000000
    10   -0.000000000000
    11   -0.921425737900
    12   -0.000000000000
    13   -0.000000000000
    14   -0.951356082413
    15   -0.000000000000
    16   -0.009877086952
    17    0.000000000148
    18   -0.000000000000
    19    0.000000000000
    20    0.000000000000
    21    1.214006307381
    22    0.000000001121
    23    0.000000000000
    24   -0.000000000000
    25   -0.003317497871
    26   -0.000000000000
    27    0.000000000000
    28   -0.066029872948
    29   -0.000000002130
    30   -0.000000000000
    31    0.000000000000
    32   -0.369875828255
    33    2.180635768810
    34   -0.514529083034
    35    0.425758708374
    36   -0.000000000476
    37   -0.178407216594
    38    0.369875828255
    39   -2.180635768810
    40    0.514529083034
    41   -0.425758708374
    42    0.000000000476
    43   -0.178407216594
Sym= a'   
Ene=   0.16287752395698E+01
Spin= Alpha
Occup=       0.0000000000
     1   -0.014940555101
     2   -0.050165135386
     3    0.387640474918
     4   -0.700007045251
     5   -1.851589007286
     6   -0.094530411847
     7    0.000000000415
     8    0.000000000000
     9    0.513582900965
    10   -0.000000000015
    11   -0.000000000000
    12    0.944655619309
    13   -0.000000000263
    14   -0.000000000000
    15    0.001665050654
    16    0.000000000000
    17   -0.000000000000
    18    0.005933958837
    19   -0.000000000067
    20   -0.808631651967
    21    0.000000000000
    22   -0.000000000000
    23   -0.828339828404
    24   -0.000000000440
    25    0.000000000000
    26    0.063166254065
    27    0.000000000167
    28   -0.000000000000
    29    0.000000000000
    30    0.021701142972
    31    0.000000000946
    32   -0.344746831126
    33    2.078255718728
    34   -0.190043813298
    35    0.142089155697
    36   -0.000000000467
    37   -0.230805220605
    38   -0.344746831126
    39    2.078255718728
    40   -0.190043813298
    41    0.142089155697
    42   -0.000000000467
    43    0.230805220605
Sym= a"   
Ene=   0.17510295590660E+01
Spin= Alpha
Occup=       0.0000000000
     1    0.000000000000
     2   -0.000000000000
     3    0.000000000000
     4   -0.000000000000
     5    0.000000000000
     6   -0.000000000000
     7   -0.000000000000
     8   -0.166644775479
     9    0.000000000000
    10   -0.000000000000
    11    0.296797612702
    12   -0.000000000000
    13   -0.000000000000
    14   -0.363831125338
    15    0.000000000000
    16    0.012641593268
    17   -0.000000000101
    18    0.000000000000
    19    0.000000000000
    20    0.000000000000
    21   -0.460502012274
    22   -0.000000000160
    23    0.000000000000
    24    0.000000000000
    25   -0.004589413268
    26   -0.000000000000
    27    0.000000000000
    28    0.028129202313
    29   -0.000000000388
    30   -0.000000000000
    31   -0.000000000000
    32    0.119985339686
    33   -0.462421903002
    34    0.361706121199
    35    0.527643488615
    36    0.000000000003
    37    0.572978638427
    38   -0.119985339686
    39    0.462421903002
    40   -0.361706121199
    41   -0.527643488615
    42   -0.000000000003
    43    0.572978638427
Sym= a'   
Ene=   0.19791517598457E+01
Spin= Alpha
Occup=       0.0000000000
     1    0.014305344761
     2    0.061767353291
     3   -0.797421666048
     4    2.545098743547
     5   -0.118716357149
     6    0.416131689730
     7   -0.000000000993
     8   -0.000000000000
     9   -1.327662264268
    10    0.000000000856
    11    0.000000000000
    12    0.061263925777
    13    0.000000000499
    14    0.000000000000
    15   -0.002805944592
    16    0.000000000000
    17   -0.000000000000
    18   -0.001537994574
    19    0.000000000220
    20    0.133440013265
    21   -0.000000000000
    22   -0.000000000000
    23   -0.226063693116
    24   -0.000000000529
    25    0.000000000000
    26   -0.155542364104
    27   -0.000000000384
    28    0.000000000000
    29   -0.000000000000
    30   -0.028774966471
    31    0.000000000475
    32    0.656262838730
    33   -1.900798635353
    34    0.497218411253
    35   -0.600413624756
    36   -0.000000000366
    37    0.552407216697
    38    0.656262838730
    39   -1.900798635353
    40    0.497218411253
    41   -0.600413624756
    42   -0.000000000366
    43   -0.552407216697
Sym= a'   
Ene=   0.20486967961562E+01
Spin= Alpha
Occup=       0.0000000000
     1    0.000000000715
     2    0.000000002993
     3   -0.000000022299
     4    0.000000038140
     5   -0.000000017201
     6   -0.000000001487
     7   -0.333685464385
     8    0.000000000000
     9   -0.000000003414
    10    0.174450208881
    11   -0.000000000000
    12    0.000000001128
    13   -0.485650302149
    14    0.000000000000
    15   -0.000000000151
    16   -0.000000000000
    17    0.000000000000
    18   -0.000000000134
    19   -0.009769964040
    20    0.000000000529
    21    0.000000000000
    22   -0.000000000000
    23    0.000000001659
    24    0.873670332656
    25   -0.000000000000
    26   -0.000000000176
    27    0.013985828503
    28   -0.000000000000
    29   -0.000000000000
    30    0.000000001009
    31   -0.004691300213
    32   -0.000000002057
    33   -0.000000003066
    34    0.000000003054
    35   -0.000000001826
    36    0.754317838627
    37    0.000000003320
    38   -0.000000002057
    39   -0.000000003066
    40    0.000000003054
    41   -0.000000001826
    42    0.754317838627
    43   -0.000000003320
Sym= a"   
Ene=   0.20979433946155E+01
Spin= Alpha
Occup=       0.0000000000
     1   -0.000000000000
     2   -0.000000000000
     3    0.000000000000
     4    0.000000000000
     5   -0.000000000000
     6   -0.000000000000
     7   -0.000000000000
     8    0.000000000796
     9   -0.000000000000
    10   -0.000000000000
    11   -0.000000001623
    12    0.000000000000
    13   -0.000000000000
    14    0.000000001196
    15   -0.000000000000
    16    0.000000000158
    17   -0.013985722942
    18    0.000000000000
    19   -0.000000000000
    20   -0.000000000000
    21   -0.000000001814
    22    1.075751506866
    23   -0.000000000000
    24    0.000000000000
    25   -0.000000000090
    26    0.000000000000
    27   -0.000000000000
    28   -0.000000000112
    29    0.005320716153
    30   -0.000000000000
    31   -0.000000000000
    32   -0.000000001474
    33    0.000000001432
    34   -0.000000001235
    35    0.000000000519
    36   -0.761769796516
    37   -0.000000000223
    38    0.000000001474
    39   -0.000000001432
    40    0.000000001235
    41   -0.000000000519
    42    0.761769796516
    43   -0.000000000223
Sym= a"   
Ene=   0.22811380860820E+01
Spin= Alpha
Occup=       0.0000000000
     1    0.000000000000
     2    0.000000000000
     3   -0.000000000000
     4    0.000000000000
     5   -0.000000000000
     6   -0.000000000000
     7   -0.000000000000
     8   -0.431938509415
     9    0.000000000000
    10    0.000000000000
    11    2.154297467044
    12   -0.000000000000
    13   -0.000000000000
    14   -0.398001365033
    15    0.000000000000
    16    0.038058584641
    17   -0.000000000360
    18    0.000000000000
    19   -0.000000000000
    20   -0.000000000000
    21   -0.121579394088
    22    0.000000001975
    23    0.000000000000
    24    0.000000000000
    25    0.020444176262
    26   -0.000000000000
    27   -0.000000000000
    28    0.132003186074
    29    0.000000000093
    30   -0.000000000000
    31   -0.000000000000
    32    0.498952007612
    33   -1.882107349189
    34    0.798409574311
    35   -0.725140891362
    36   -0.000000001456
    37    0.806773683818
    38   -0.498952007612
    39    1.882107349189
    40   -0.798409574311
    41    0.725140891362
    42    0.000000001456
    43    0.806773683818
Sym= a'   
Ene=   0.23726659272663E+01
Spin= Alpha
Occup=       0.0000000000
     1    0.017638347376
     2    0.065351171761
     3   -0.585990184043
     4    1.292757412577
     5    0.540088364886
     6   -0.482442017991
     7   -0.000000005135
     8    0.000000000000
     9    0.003890492550
    10    0.000000007081
    11   -0.000000000000
    12   -0.833076783105
    13   -0.000000000112
    14    0.000000000000
    15   -0.000926220054
    16   -0.000000000000
    17    0.000000000000
    18    0.002915235693
    19    0.000000000057
    20   -0.755229292685
    21    0.000000000000
    22   -0.000000000000
    23    0.665457270807
    24   -0.000000003207
    25    0.000000000000
    26   -0.074670258369
    27    0.000000000162
    28   -0.000000000000
    29    0.000000000000
    30   -0.005529901413
    31   -0.000000002145
    32    0.225841662407
    33   -1.015564245248
    34    0.040443827288
    35    0.321103668071
    36   -0.000000003404
    37    0.790694055350
    38    0.225841662407
    39   -1.015564245248
    40    0.040443827288
    41    0.321103668071
    42   -0.000000003404
    43   -0.790694055350
Sym= a"   
Ene=   0.25681952390385E+01
Spin= Alpha
Occup=       0.0000000000
     1    0.000000000000
     2    0.000000000000
     3   -0.000000000000
     4    0.000000000000
     5   -0.000000000000
     6    0.000000000000
     7    0.000000000000
     8    0.934503965320
     9    0.000000000000
    10   -0.000000000000
    11    0.060865650953
    12    0.000000000000
    13    0.000000000000
    14    1.066344937824