 argument  1 = test.nw



============================== echo of input deck ==============================
echo
start tddftgrad_pyridine_opt
title "TDDFT/B3LYP geometry optimization of Water"

geometry
O     0.00000000     0.00000000     0.12982363
H     0.75933475     0.00000000    -0.46621158
H    -0.75933475     0.00000000    -0.46621158
end

basis spherical
* library "def2-svp"
end

driver
  clear
  maxiter 100
end

dft
  xc b3lyp
  iterations 500
  grid xfine
  disp vdw 4
end

cosmo
  solvent toluene
end

tddft
  nroots 5
  algorithm 1
  notriplet
  target 1
  targetsym a
  civecs
  grad
    root 1
  end

end
task tddft optimize
task tddft frequencies

tddft
  nroots 5
  algorithm 1
  nosinglet
  target 1
  targetsym a
  civecs
  grad
    root 1
  end

end
task tddft optimize
task tddft frequencies

# Calcul des propriétés électroniques
dplot
  vectors ascii
  limit 10
  filename orbitals
end
task dplot

# Calcul du gap HOMO-LUMO
set dft:print "HOMO-LUMO Gap"
task dft energy

# Calcul des forces d'oscillateur et autres propriétés
tddft
  nroots 4
  target_mult 1
  oscillator
end
task tddft energy

# Analyse des résultats
property
  nbo
  analyze
end
task property

# Fin du calcul
task dft
================================================================================


                                         
                                         


             Northwest Computational Chemistry Package (NWChem) 7.0.2
             --------------------------------------------------------


                    Environmental Molecular Sciences Laboratory
                       Pacific Northwest National Laboratory
                                Richland, WA 99352

                              Copyright (c) 1994-2020
                       Pacific Northwest National Laboratory
                            Battelle Memorial Institute

             NWChem is an open-source computational chemistry package
                        distributed under the terms of the
                      Educational Community License (ECL) 2.0
             A copy of the license is included with this distribution
                              in the LICENSE.TXT file

                                  ACKNOWLEDGMENT
                                  --------------

            This software and its documentation were developed at the
            EMSL at Pacific Northwest National Laboratory, a multiprogram
            national laboratory, operated for the U.S. Department of Energy
            by Battelle under Contract Number DE-AC05-76RL01830. Support
            for this work was provided by the Department of Energy Office
            of Biological and Environmental Research, Office of Basic
            Energy Sciences, and the Office of Advanced Scientific Computing.


           Job information
           ---------------

    hostname        = taamangtchu-Aspire-A515-45
    program         = nwchem
    date            = Fri Jun 28 19:51:38 2024

    compiled        = Sat_Apr_09_17:12:10_2022
    source          = /build/nwchem-f1f4gx/nwchem-7.0.2/build-openmpi
    nwchem branch   = 7.0.2
    nwchem revision = N/A
    ga revision     = 5.8.1
    use scalapack   = T
    input           = test.nw
    prefix          = tddftgrad_pyridine_opt.
    data base       = ./tddftgrad_pyridine_opt.db
    status          = startup
    nproc           =        1
    time left       =     -1s



           Memory information
           ------------------

    heap     =   13107198 doubles =    100.0 Mbytes
    stack    =   13107195 doubles =    100.0 Mbytes
    global   =   26214400 doubles =    200.0 Mbytes (distinct from heap & stack)
    total    =   52428793 doubles =    400.0 Mbytes
    verify   = yes
    hardfail = no 


           Directory information
           ---------------------

  0 permanent = .
  0 scratch   = .




                                NWChem Input Module
                                -------------------


                    TDDFT/B3LYP geometry optimization of Water
                    ------------------------------------------

 Scaling coordinates for geometry "geometry" by  1.889725989
 (inverse scale =  0.529177249)

 C2V symmetry detected

          ------
          auto-z
          ------
  no constraints, skipping    0.0000000000000000     
  no constraints, skipping    0.0000000000000000     


                             Geometry "geometry" -> ""
                             -------------------------

 Output coordinates in angstroms (scale by  1.889725989 to convert to a.u.)

  No.       Tag          Charge          X              Y              Z
 ---- ---------------- ---------- -------------- -------------- --------------
    1 O                    8.0000     0.00000000     0.00000000     0.11920704
    2 H                    1.0000     0.75933475     0.00000000    -0.47682817
    3 H                    1.0000    -0.75933475     0.00000000    -0.47682817

      Atomic Mass 
      ----------- 

      O                 15.994910
      H                  1.007825


 Effective nuclear repulsion energy (a.u.)       9.1194413826

            Nuclear Dipole moment (a.u.) 
            ----------------------------
        X                 Y               Z
 ---------------- ---------------- ----------------
     0.0000000000     0.0000000000     0.0000000000

      Symmetry information
      --------------------

 Group name             C2v       
 Group number             16
 Group order               4
 No. of unique centers     2

      Symmetry unique atoms

     1    2



                                Z-matrix (autoz)
                                -------- 

 Units are Angstrom for bonds and degrees for angles

      Type          Name      I     J     K     L     M      Value
      ----------- --------  ----- ----- ----- ----- ----- ----------
    1 Stretch                  1     2                       0.96532
    2 Stretch                  1     3                       0.96532
    3 Bend                     2     1     3               103.74015


            XYZ format geometry
            -------------------
     3
 geometry
 O                     0.00000000     0.00000000     0.11920704
 H                     0.75933475     0.00000000    -0.47682817
 H                    -0.75933475     0.00000000    -0.47682817

 ==============================================================================
                                internuclear distances
 ------------------------------------------------------------------------------
       center one      |      center two      | atomic units |  angstroms
 ------------------------------------------------------------------------------
    2 H                |   1 O                |     1.82419  |     0.96532
    3 H                |   1 O                |     1.82419  |     0.96532
 ------------------------------------------------------------------------------
                         number of included internuclear distances:          2
 ==============================================================================



 ==============================================================================
                                 internuclear angles
 ------------------------------------------------------------------------------
        center 1       |       center 2       |       center 3       |  degrees
 ------------------------------------------------------------------------------
    2 H                |   1 O                |   3 H                |   103.74
 ------------------------------------------------------------------------------
                            number of included internuclear angles:          1
 ==============================================================================





 Summary of "ao basis" -> "" (spherical)
 ------------------------------------------------------------------------------
       Tag                 Description            Shells   Functions and Types
 ---------------- ------------------------------  ------  ---------------------
 *                          def2-svp                  on all atoms 



  Deleted DRIVER restart files 

 tddft_input: filename not found; default name will be used


                           NWChem Geometry Optimization
                           ----------------------------




                    TDDFT/B3LYP geometry optimization of Water


  no constraints, skipping    0.0000000000000000     
 maximum gradient threshold         (gmax) =   0.000450
 rms gradient threshold             (grms) =   0.000300
 maximum cartesian step threshold   (xmax) =   0.001800
 rms cartesian step threshold       (xrms) =   0.001200
 fixed trust radius                (trust) =   0.300000
 maximum step size to saddle      (sadstp) =   0.100000
 energy precision                  (eprec) =   1.0D-07
 maximum number of steps          (nptopt) =  100
 initial hessian option           (inhess) =    0
 line search option               (linopt) =    1
 hessian update option            (modupd) =    1
 saddle point option              (modsad) =    0
 initial eigen-mode to follow     (moddir) =    0
 initial variable to follow       (vardir) =    0
 follow first negative mode     (firstneg) =    T
 apply conjugacy                    (opcg) =    F
 source of zmatrix                         =   autoz   


          -------------------
          Energy Minimization
          -------------------


 Names of Z-matrix variables 
    1              2              3         

 Variables with the same non-blank name are constrained to be equal


 Using diagonal initial Hessian 
 Scaling for Hessian diagonals: bonds = 1.00  angles = 0.25  torsions = 0.10

          --------
          Step   0
          --------


                         Geometry "geometry" -> "geometry"
                         ---------------------------------

 Output coordinates in angstroms (scale by  1.889725989 to convert to a.u.)

  No.       Tag          Charge          X              Y              Z
 ---- ---------------- ---------- -------------- -------------- --------------
    1 O                    8.0000     0.00000000     0.00000000     0.11920704
    2 H                    1.0000     0.75933475     0.00000000    -0.47682817
    3 H                    1.0000    -0.75933475     0.00000000    -0.47682817

      Atomic Mass 
      ----------- 

      O                 15.994910
      H                  1.007825


 Effective nuclear repulsion energy (a.u.)       9.1194413826

            Nuclear Dipole moment (a.u.) 
            ----------------------------
        X                 Y               Z
 ---------------- ---------------- ----------------
     0.0000000000     0.0000000000     0.0000000000

      Symmetry information
      --------------------

 Group name             C2v       
 Group number             16
 Group order               4
 No. of unique centers     2

      Symmetry unique atoms

     1    2


                                 NWChem DFT Module
                                 -----------------


                    TDDFT/B3LYP geometry optimization of Water


                      Basis "ao basis" -> "ao basis" (spherical)
                      -----
  O (Oxygen)
  ----------
            Exponent  Coefficients 
       -------------- ---------------------------------------------------------
  1 S  2.26617678E+03 -0.005343
  1 S  3.40870102E+02 -0.039890
  1 S  7.73631352E+01 -0.178539
  1 S  2.14796449E+01 -0.464277
  1 S  6.65894331E+00 -0.443097

  2 S  8.09759757E-01  1.000000

  3 S  2.55307722E-01  1.000000

  4 P  1.77215043E+01  0.043395
  4 P  3.86355054E+00  0.230941
  4 P  1.04809209E+00  0.513753

  5 P  2.76415444E-01  1.000000

  6 D  1.20000000E+00  1.000000

  H (Hydrogen)
  ------------
            Exponent  Coefficients 
       -------------- ---------------------------------------------------------
  1 S  1.30107010E+01  0.019682
  1 S  1.96225720E+00  0.137965
  1 S  4.44537960E-01  0.478319

  2 S  1.21949620E-01  1.000000

  3 P  8.00000000E-01  1.000000



 Summary of "ao basis" -> "ao basis" (spherical)
 ------------------------------------------------------------------------------
       Tag                 Description            Shells   Functions and Types
 ---------------- ------------------------------  ------  ---------------------
 O                          def2-svp                 6       14   3s2p1d
 H                          def2-svp                 3        5   2s1p




 Summary of "ao basis" -> "ao basis" (spherical)
 ------------------------------------------------------------------------------
       Tag                 Description            Shells   Functions and Types
 ---------------- ------------------------------  ------  ---------------------
 O                          def2-svp                 6       14   3s2p1d
 H                          def2-svp                 3        5   2s1p


      Symmetry analysis of basis
      --------------------------

        a1         11
        a2          2
        b1          7
        b2          4


 solvent parameters
 solvname_short: toluene 
 solvname_long:  toluene                            
 dielec:        2.3741
 dielecinf:     2.2383

          ---------------
          -cosmo- solvent
          ---------------
 Cosmo: York-Karplus, doi: 10.1021/jp992097l
 dielectric constant -eps-     =   2.37
 screen = (eps-1)/(eps    )    =   0.57879
 surface charge correction     = lagrangian
 -lineq- algorithm             =   0
 -bem- low  level              =   2
 -bem- from -octahedral-
 gaussian surface charge width =   0.98000
 degree of switching           =   1.00000
 switching function tolerance  =   0.00010
 atomic radii = 
 --------------
    1  8.000  1.720
    2  1.000  1.300
    3  1.000  1.300

 solvent accessible surface
 --------------------------

 ---------- ATOMIC COORDINATES (A.U.) ------------ VDWR(ANG.) --
     1    0.00000000    0.00000000    0.22526865     1.720
     2    1.43493461    0.00000000   -0.90107458     1.300
     3   -1.43493461    0.00000000   -0.90107458     1.300
 number of segments per atom =         32
 number of   points per atom =         32
 atom (   nspa,  nppa )
 ----------------------
    1 (     20,     0 )       0
    2 (     20,     0 )       0
    3 (     20,     0 )       0
 number of -cosmo- surface points =       60
 molecular surface =     40.787 angstrom**2
 molecular volume  =     20.919 angstrom**3
 G(cav/disp)       =      1.064 kcal/mol
 ...... end of -cosmo- initialization ......


  Caching 1-el integrals 

            General Information
            -------------------
          SCF calculation type: DFT
          Wavefunction type:  closed shell.
          No. of atoms     :     3
          No. of electrons :    10
           Alpha electrons :     5
            Beta electrons :     5
          Charge           :     0
          Spin multiplicity:     1
          Use of symmetry is: off; symmetry adaption is: on 
          Maximum number of iterations: 500
          AO basis - number of functions:    24
                     number of shells:    12
          Convergence on energy requested:  1.00D-06
          Convergence on density requested:  1.00D-05
          Convergence on gradient requested:  5.00D-04

              XC Information
              --------------
                         B3LYP Method XC Potential
                     Hartree-Fock (Exact) Exchange  0.200          
                        Slater Exchange Functional  0.800 local    
                    Becke 1988 Exchange Functional  0.720 non-local
              Lee-Yang-Parr Correlation Functional  0.810          
                  VWN I RPA Correlation Functional  0.190 local    

             Grid Information
             ----------------
          Grid used for XC integration:  xfine     
          Radial quadrature: Mura-Knowles        
          Angular quadrature: Lebedev. 
          Tag              B.-S. Rad. Rad. Pts. Rad. Cut. Ang. Pts.
          ---              ---------- --------- --------- ---------
          O                   0.60      100           6.0      1454
          H                   0.35      100           7.0      1202
          Grid pruning is: on 
          Number of quadrature shells:   300
          Spatial weights used:  Erf1

          Convergence Information
          -----------------------
          Convergence aids based upon iterative change in 
          total energy or number of iterations. 
          Levelshifting, if invoked, occurs when the 
          HOMO/LUMO gap drops below (HL_TOL):  1.00D-02
          DIIS, if invoked, will attempt to extrapolate 
          using up to (NFOCK): 10 stored Fock matrices.

                    Damping( 0%)  Levelshifting(0.5)       DIIS
                  --------------- ------------------- ---------------
          dE  on:    start            ASAP                start   
          dE off:    2 iters        500 iters           500 iters 


      Screening Tolerance Information
      -------------------------------
          Density screening/tol_rho:  1.00D-10
          AO Gaussian exp screening on grid/accAOfunc:  14
          CD Gaussian exp screening on grid/accCDfunc:  20
          XC Gaussian exp screening on grid/accXCfunc:  20
          Schwarz screening/accCoul:  1.00D-08

      Dispersion Parameters
      ---------------------

           DFT-D3BJ Model   
          s6 scale factor  :        1.000000000000
          s8 scale factor  :        1.988900000000
          a1 parameter     :        0.398100000000
          a2 parameter     :        4.421100000000
              vdW contrib  :       -0.000573912586


      Superposition of Atomic Density Guess
      -------------------------------------

 Sum of atomic energies:         -75.68971188

      Non-variational initial energy
      ------------------------------

 Total energy =     -75.843876
 1-e energy   =    -121.542980
 2-e energy   =      36.579662
 HOMO         =      -0.472414
 LUMO         =       0.088297


      Symmetry analysis of molecular orbitals - initial
      -------------------------------------------------

  Numbering of irreducible representations: 

     1 a1          2 a2          3 b1          4 b2      

  Orbital symmetries:

     1 a1          2 a1          3 b1          4 a1          5 b2      
     6 a1          7 b1          8 b1          9 a1         10 a1      
    11 b2         12 b1         13 a1         14 a2         15 a1      

   Time after variat. SCF:      0.2
   Time prior to 1st pass:      0.2

 #quartets = 3.081D+03 #integrals = 2.434D+04 #direct =  0.0% #cached =100.0%


 Integral file          = ./tddftgrad_pyridine_opt.aoints.0
 Record size in doubles =  65536        No. of integs per rec  =  43688
 Max. records in memory =      2        Max. records in file   =  59811
 No. of bits per label  =      8        No. of bits per value  =     64


 Grid_pts file          = ./tddftgrad_pyridine_opt.gridpts.0
 Record size in doubles =  12289        No. of grid_pts per rec  =   3070
 Max. records in memory =    158        Max. recs in file   =    318971


           Memory utilization after 1st SCF pass: 
           Heap Space remaining (MW):       11.03            11032510
          Stack Space remaining (MW):       13.11            13106924

   convergence    iter        energy       DeltaE   RMS-Dens  Diis-err    time
 ---------------- ----- ----------------- --------- --------- ---------  ------
     COSMO gas phase
 d= 0,ls=0.0,diis     1    -76.3225611191 -8.54D+01  2.66D-02  3.43D-01     1.3
 Grid integrated density:       9.999999899848
 Requested integration accuracy:   0.10E-07

 !! scf_movecs_sym_adapt:    2 vectors were symmetry contaminated

  Symmetry fudging
 d= 0,ls=0.0,diis     2    -76.3171250923  5.44D-03  1.41D-02  4.63D-01     1.8
 d= 0,ls=0.0,diis     3    -76.3581868040 -4.11D-02  1.66D-03  7.73D-03     2.2
 d= 0,ls=0.0,diis     4    -76.3588719805 -6.85D-04  1.34D-04  6.38D-05     2.5
 d= 0,ls=0.0,diis     5    -76.3588774871 -5.51D-06  1.02D-05  1.30D-07     2.7
 d= 0,ls=0.0,diis     6    -76.3588775009 -1.38D-08  1.18D-06  9.07D-10     3.1

           Memory utilization after 1st SCF pass: 
           Heap Space remaining (MW):       11.03            11032238
          Stack Space remaining (MW):       13.11            13106924

   convergence    iter        energy       DeltaE   RMS-Dens  Diis-err    time
 ---------------- ----- ----------------- --------- --------- ---------  ------
     COSMO solvation phase
 d= 0,ls=0.0,diis     1    -76.3643698483 -5.49D-03  2.42D-03  1.62D-03     3.4
 d= 0,ls=0.0,diis     2    -76.3646633478 -2.93D-04  6.91D-04  8.63D-04     3.8
 d= 0,ls=0.0,diis     3    -76.3647246527 -6.13D-05  2.84D-04  1.58D-04     4.1
 d= 0,ls=0.0,diis     4    -76.3647389220 -1.43D-05  2.69D-05  2.71D-06     4.4
 d= 0,ls=0.0,diis     5    -76.3647391559 -2.34D-07  4.04D-06  6.24D-09     4.8


         Total DFT energy =      -76.364739155922
      One electron energy =     -123.070247469468
           Coulomb energy =       46.904533241999
    Exchange-Corr. energy =       -9.355796259564
 Nuclear repulsion energy =        9.119441382552

    Dispersion correction =       -0.000573912586

             COSMO energy =        0.037903861146

 Numeric. integr. density =        9.999999937826

     Total iterative time =      4.5s


                                   COSMO solvation results
                                   -----------------------

                 gas phase energy =       -76.358877500898
                 sol phase energy =       -76.364739155922
 (electrostatic) solvation energy =         0.005861655024 (    3.68 kcal/mol)

                  Occupations of the irreducible representations
                  ----------------------------------------------

                     irrep           alpha         beta
                     --------     --------     --------
                     a1                3.0          3.0
                     a2                0.0          0.0
                     b1                1.0          1.0
                     b2                1.0          1.0


                       DFT Final Molecular Orbital Analysis
                       ------------------------------------

 Vector    1  Occ=2.000000D+00  E=-1.911864D+01  Symmetry=a1
              MO Center=  1.9D-11, -4.1D-11,  1.2D-01, r^2= 1.5D-02
   Bfn.  Coefficient  Atom+Function         Bfn.  Coefficient  Atom+Function  
  ----- ------------  ---------------      ----- ------------  ---------------
     1      0.988804  1 O  s                  2     -0.039537  1 O  s          

 Vector    2  Occ=2.000000D+00  E=-9.783992D-01  Symmetry=a1
              MO Center= -4.0D-09,  5.6D-09, -8.9D-02, r^2= 5.1D-01
   Bfn.  Coefficient  Atom+Function         Bfn.  Coefficient  Atom+Function  
  ----- ------------  ---------------      ----- ------------  ---------------
     2      0.552183  1 O  s                  1      0.277188  1 O  s          
     3      0.263980  1 O  s                 15      0.202227  2 H  s          
    20      0.202227  3 H  s                  6     -0.118274  1 O  pz         
    17     -0.031412  2 H  px                22      0.031412  3 H  px         

 Vector    3  Occ=2.000000D+00  E=-5.107725D-01  Symmetry=b1
              MO Center=  7.5D-09,  2.2D-11, -1.1D-01, r^2= 7.8D-01
   Bfn.  Coefficient  Atom+Function         Bfn.  Coefficient  Atom+Function  
  ----- ------------  ---------------      ----- ------------  ---------------
     4      0.507416  1 O  px                15      0.323364  2 H  s          
    20     -0.323364  3 H  s                  7      0.211074  1 O  px         
    16      0.100150  2 H  s                 21     -0.100150  3 H  s          
    19      0.026598  2 H  pz                24     -0.026598  3 H  pz         

 Vector    4  Occ=2.000000D+00  E=-3.697457D-01  Symmetry=a1
              MO Center= -3.7D-10,  1.3D-18,  2.1D-01, r^2= 6.7D-01
   Bfn.  Coefficient  Atom+Function         Bfn.  Coefficient  Atom+Function  
  ----- ------------  ---------------      ----- ------------  ---------------
     6      0.548979  1 O  pz                 3      0.358292  1 O  s          
     9      0.350725  1 O  pz                 2      0.208993  1 O  s          
    15     -0.199075  2 H  s                 20     -0.199075  3 H  s          
     1      0.106700  1 O  s                 16     -0.057430  2 H  s          
    21     -0.057430  3 H  s          

 Vector    5  Occ=2.000000D+00  E=-2.940567D-01  Symmetry=b2
              MO Center=  2.0D-17, -5.5D-09,  9.7D-02, r^2= 5.9D-01
   Bfn.  Coefficient  Atom+Function         Bfn.  Coefficient  Atom+Function  
  ----- ------------  ---------------      ----- ------------  ---------------
     5      0.635633  1 O  py                 8      0.494292  1 O  py         
    18      0.028829  2 H  py                23      0.028829  3 H  py         

 Vector    6  Occ=0.000000D+00  E= 5.531070D-02  Symmetry=a1
              MO Center= -3.1D-09,  1.5D-19, -6.5D-01, r^2= 2.8D+00
   Bfn.  Coefficient  Atom+Function         Bfn.  Coefficient  Atom+Function  
  ----- ------------  ---------------      ----- ------------  ---------------
     3      0.957594  1 O  s                 16     -0.825059  2 H  s          
    21     -0.825059  3 H  s                  9     -0.341189  1 O  pz         
     6     -0.235442  1 O  pz                 2      0.179184  1 O  s          
    15     -0.116170  2 H  s                 20     -0.116170  3 H  s          
     1      0.105736  1 O  s          

 Vector    7  Occ=0.000000D+00  E= 1.356474D-01  Symmetry=b1
              MO Center= -1.7D-10, -3.4D-19, -5.7D-01, r^2= 3.2D+00
   Bfn.  Coefficient  Atom+Function         Bfn.  Coefficient  Atom+Function  
  ----- ------------  ---------------      ----- ------------  ---------------
    16      1.295185  2 H  s                 21     -1.295185  3 H  s          
     7     -0.601019  1 O  px                 4     -0.369991  1 O  px         
    15      0.108034  2 H  s                 20     -0.108034  3 H  s          

 Vector    8  Occ=0.000000D+00  E= 5.621222D-01  Symmetry=b1
              MO Center= -1.6D-10, -5.4D-19, -2.6D-01, r^2= 1.9D+00
   Bfn.  Coefficient  Atom+Function         Bfn.  Coefficient  Atom+Function  
  ----- ------------  ---------------      ----- ------------  ---------------
    15      0.968860  2 H  s                 20     -0.968860  3 H  s          
    16     -0.832951  2 H  s                 21      0.832951  3 H  s          
     7     -0.398307  1 O  px                 4     -0.285658  1 O  px         
    19     -0.105071  2 H  pz                24      0.105071  3 H  pz         
    13      0.101830  1 O  d  1              17      0.041654  2 H  px         

 Vector    9  Occ=0.000000D+00  E= 6.267178D-01  Symmetry=a1
              MO Center=  6.2D-11, -4.1D-21, -5.0D-01, r^2= 1.7D+00
   Bfn.  Coefficient  Atom+Function         Bfn.  Coefficient  Atom+Function  
  ----- ------------  ---------------      ----- ------------  ---------------
    15      0.841024  2 H  s                 20      0.841024  3 H  s          
    16     -0.633701  2 H  s                 21     -0.633701  3 H  s          
     3      0.416285  1 O  s                  6      0.387748  1 O  pz         
     2     -0.378085  1 O  s                 17      0.205689  2 H  px         
    22     -0.205689  3 H  px                 1     -0.103439  1 O  s          

 Vector   10  Occ=0.000000D+00  E= 9.098525D-01  Symmetry=a1
              MO Center= -2.5D-10, -1.4D-20,  4.0D-01, r^2= 1.1D+00
   Bfn.  Coefficient  Atom+Function         Bfn.  Coefficient  Atom+Function  
  ----- ------------  ---------------      ----- ------------  ---------------
     9      1.141237  1 O  pz                 6     -0.776728  1 O  pz         
     2     -0.642896  1 O  s                 15      0.392128  2 H  s          
    20      0.392128  3 H  s                  3      0.179718  1 O  s          
     1     -0.147968  1 O  s                 19      0.122308  2 H  pz         
    24      0.122308  3 H  pz                17     -0.031371  2 H  px         

 Vector   11  Occ=0.000000D+00  E= 9.158724D-01  Symmetry=b2
              MO Center= -2.2D-19, -4.3D-10,  1.1D-01, r^2= 1.1D+00
   Bfn.  Coefficient  Atom+Function         Bfn.  Coefficient  Atom+Function  
  ----- ------------  ---------------      ----- ------------  ---------------
     8     -1.023439  1 O  py                 5      0.965860  1 O  py         

 Vector   12  Occ=0.000000D+00  E= 1.004840D+00  Symmetry=b1
              MO Center=  3.6D-10, -8.8D-20,  1.3D-01, r^2= 1.7D+00
   Bfn.  Coefficient  Atom+Function         Bfn.  Coefficient  Atom+Function  
  ----- ------------  ---------------      ----- ------------  ---------------
     7      1.741695  1 O  px                16     -0.828222  2 H  s          
    21      0.828222  3 H  s                  4     -0.778466  1 O  px         
    15     -0.339201  2 H  s                 20      0.339201  3 H  s          
    17      0.222160  2 H  px                22      0.222160  3 H  px         
    19     -0.125810  2 H  pz                24      0.125810  3 H  pz         

 Vector   13  Occ=0.000000D+00  E= 1.095997D+00  Symmetry=a1
              MO Center=  2.1D-10, -1.9D-20, -2.9D-01, r^2= 1.4D+00
   Bfn.  Coefficient  Atom+Function         Bfn.  Coefficient  Atom+Function  
  ----- ------------  ---------------      ----- ------------  ---------------
     3      2.783719  1 O  s                  2     -1.536685  1 O  s          
     9     -0.668631  1 O  pz                15     -0.531626  2 H  s          
    20     -0.531626  3 H  s                 16     -0.519274  2 H  s          
    21     -0.519274  3 H  s                 19     -0.309432  2 H  pz         
    24     -0.309432  3 H  pz                 1     -0.243231  1 O  s          

 Vector   14  Occ=0.000000D+00  E= 1.351907D+00  Symmetry=a2
              MO Center= -4.0D-10, -5.3D-11, -4.2D-01, r^2= 9.9D-01
   Bfn.  Coefficient  Atom+Function         Bfn.  Coefficient  Atom+Function  
  ----- ------------  ---------------      ----- ------------  ---------------
    18      0.666766  2 H  py                23     -0.666766  3 H  py         
    10      0.175290  1 O  d -2       

 Vector   15  Occ=0.000000D+00  E= 1.405109D+00  Symmetry=a1
              MO Center= -3.1D-09, -2.9D-10, -1.8D-01, r^2= 1.2D+00
   Bfn.  Coefficient  Atom+Function         Bfn.  Coefficient  Atom+Function  
  ----- ------------  ---------------      ----- ------------  ---------------
     3      1.647362  1 O  s                  9     -1.168481  1 O  pz         
    15     -0.723939  2 H  s                 20     -0.723939  3 H  s          
     2     -0.688605  1 O  s                 17      0.440948  2 H  px         
    19      0.439456  2 H  pz                22     -0.440948  3 H  px         
    24      0.439456  3 H  pz                12     -0.197568  1 O  d  0       

 Vector   16  Occ=0.000000D+00  E= 1.548912D+00  Symmetry=b2
              MO Center=  6.0D-10,  1.1D-09, -2.9D-01, r^2= 1.1D+00
   Bfn.  Coefficient  Atom+Function         Bfn.  Coefficient  Atom+Function  
  ----- ------------  ---------------      ----- ------------  ---------------
    18      0.733072  2 H  py                23      0.733072  3 H  py         
     8     -0.570682  1 O  py                11     -0.211000  1 O  d -1       

 Vector   17  Occ=0.000000D+00  E= 1.790884D+00  Symmetry=b1
              MO Center=  2.9D-09, -4.7D-12, -4.1D-01, r^2= 1.2D+00
   Bfn.  Coefficient  Atom+Function         Bfn.  Coefficient  Atom+Function  
  ----- ------------  ---------------      ----- ------------  ---------------
     7      0.813791  1 O  px                19     -0.673335  2 H  pz         
    24      0.673335  3 H  pz                17     -0.457263  2 H  px         
    22     -0.457263  3 H  px                15     -0.339997  2 H  s          
    20      0.339997  3 H  s                 16     -0.091271  2 H  s          
    21      0.091271  3 H  s                 13     -0.027482  1 O  d  1       

 Vector   18  Occ=0.000000D+00  E= 2.210023D+00  Symmetry=b1
              MO Center= -2.5D-10,  2.1D-11, -3.7D-01, r^2= 1.1D+00
   Bfn.  Coefficient  Atom+Function         Bfn.  Coefficient  Atom+Function  
  ----- ------------  ---------------      ----- ------------  ---------------
     4      0.728790  1 O  px                17      0.682829  2 H  px         
    22      0.682829  3 H  px                19     -0.526579  2 H  pz         
    24      0.526579  3 H  pz                16     -0.336440  2 H  s          
    21      0.336440  3 H  s                 15     -0.199117  2 H  s          
    20      0.199117  3 H  s                 13     -0.173458  1 O  d  1       

 Vector   19  Occ=0.000000D+00  E= 2.254603D+00  Symmetry=a1
              MO Center= -2.0D-10, -4.9D-10, -3.5D-01, r^2= 9.9D-01
   Bfn.  Coefficient  Atom+Function         Bfn.  Coefficient  Atom+Function  
  ----- ------------  ---------------      ----- ------------  ---------------
     2      0.735556  1 O  s                 17      0.712030  2 H  px         
    22     -0.712030  3 H  px                 3      0.691563  1 O  s          
     6     -0.582711  1 O  pz                19     -0.508009  2 H  pz         
    24     -0.508009  3 H  pz                15     -0.401363  2 H  s          
    20     -0.401363  3 H  s                 14     -0.282886  1 O  d  2       

 Vector   20  Occ=0.000000D+00  E= 2.957758D+00  Symmetry=b2
              MO Center=  5.2D-09, -2.1D-10,  3.4D-02, r^2= 6.0D-01
   Bfn.  Coefficient  Atom+Function         Bfn.  Coefficient  Atom+Function  
  ----- ------------  ---------------      ----- ------------  ---------------
    11      1.028273  1 O  d -1              18      0.412662  2 H  py         
    23      0.412662  3 H  py                 8     -0.300666  1 O  py         

 Vector   21  Occ=0.000000D+00  E= 3.000389D+00  Symmetry=a2
              MO Center= -5.4D-09, -6.5D-12,  4.4D-02, r^2= 5.9D-01
   Bfn.  Coefficient  Atom+Function         Bfn.  Coefficient  Atom+Function  
  ----- ------------  ---------------      ----- ------------  ---------------
    10      1.052446  1 O  d -2              18     -0.382794  2 H  py         
    23      0.382794  3 H  py         

 Vector   22  Occ=0.000000D+00  E= 3.185174D+00  Symmetry=a1
              MO Center=  5.0D-10,  1.2D-10,  2.9D-02, r^2= 6.7D-01
   Bfn.  Coefficient  Atom+Function         Bfn.  Coefficient  Atom+Function  
  ----- ------------  ---------------      ----- ------------  ---------------
    12      1.064463  1 O  d  0               9     -0.523771  1 O  pz         
     3      0.488986  1 O  s                 17      0.361928  2 H  px         
    22     -0.361928  3 H  px                19      0.330662  2 H  pz         
    24      0.330662  3 H  pz                15     -0.280924  2 H  s          
    20     -0.280924  3 H  s                 14     -0.202680  1 O  d  2       

 Vector   23  Occ=0.000000D+00  E= 3.490037D+00  Symmetry=a1
              MO Center=  1.7D-09,  8.6D-11, -3.6D-02, r^2= 7.9D-01
   Bfn.  Coefficient  Atom+Function         Bfn.  Coefficient  Atom+Function  
  ----- ------------  ---------------      ----- ------------  ---------------
     3      1.919039  1 O  s                 15     -1.144724  2 H  s          
    20     -1.144724  3 H  s                 14      1.136865  1 O  d  2       
     9     -0.918028  1 O  pz                17      0.622927  2 H  px         
    22     -0.622927  3 H  px                19     -0.493530  2 H  pz         
    24     -0.493530  3 H  pz                 6     -0.380471  1 O  pz         

 Vector   24  Occ=0.000000D+00  E= 3.818304D+00  Symmetry=b1
              MO Center= -1.7D-09,  2.1D-11,  7.1D-02, r^2= 8.0D-01
   Bfn.  Coefficient  Atom+Function         Bfn.  Coefficient  Atom+Function  
  ----- ------------  ---------------      ----- ------------  ---------------
    13      1.334905  1 O  d  1               7      1.110414  1 O  px         
    15     -1.041524  2 H  s                 20      1.041524  3 H  s          
    17      0.619499  2 H  px                22      0.619499  3 H  px         
    19     -0.516173  2 H  pz                24      0.516173  3 H  pz         
     4      0.468352  1 O  px                16     -0.273736  2 H  s          


 center of mass
 --------------
 x =   0.00000000 y =   0.00000000 z =   0.09921406

 moments of inertia (a.u.)
 ------------------
           2.270969023714           0.000000000000           0.000000000000
           0.000000000000           6.421267634361           0.000000000000
           0.000000000000           0.000000000000           4.150298610647

     Multipole analysis of the density
     ---------------------------------

     L   x y z        total         alpha         beta         nuclear
     -   - - -        -----         -----         ----         -------
     0   0 0 0     -0.000000     -5.000000     -5.000000     10.000000

     1   1 0 0     -0.000000     -0.000000     -0.000000      0.000000
     1   0 1 0     -0.000000     -0.000000     -0.000000      0.000000
     1   0 0 1     -0.848580     -0.424290     -0.424290      0.000000

     2   2 0 0     -3.143261     -3.630668     -3.630668      4.118075
     2   1 1 0      0.000000      0.000000      0.000000      0.000000
     2   1 0 1      0.000000      0.000000      0.000000      0.000000
     2   0 2 0     -5.213535     -2.606768     -2.606768      0.000000
     2   0 1 1     -0.000000     -0.000000     -0.000000      0.000000
     2   0 0 2     -4.398447     -3.214143     -3.214143      2.029839


 Parallel integral file used       1 records with       0 large values

                                NWChem TDDFT Module
                                -------------------


                    TDDFT/B3LYP geometry optimization of Water


            General Information
            -------------------
           No. of orbitals :      48
            Alpha orbitals :      24
             Beta orbitals :      24
        Alpha frozen cores :       0
         Beta frozen cores :       0
     Alpha frozen virtuals :       0
      Beta frozen virtuals :       0
         Spin multiplicity :       1
    Number of AO functions :      24
        Use of symmetry is : off
      Symmetry adaption is : on 
         Schwarz screening :  0.10D-07

              XC Information
              --------------
                  B3LYP Method XC Potential
              Hartree-Fock (Exact) Exchange   0.20          
                 Slater Exchange Functional   0.80 local    
             Becke 1988 Exchange Functional   0.72 non-local
       Lee-Yang-Parr Correlation Functional   0.81          
           VWN I RPA Correlation Functional   0.19 local    

             TDDFT Information
             -----------------
          Calculation type : TDDFT             
         Wavefunction type : Restricted singlets
          No. of electrons :      10
           Alpha electrons :       5
            Beta electrons :       5
              No. of roots :       5
          Max subspacesize :    5000
            Max iterations :     100
               Target root :       1
           Target symmetry : a   
      Symmetry restriction : off
                 Algorithm : Incore multiple tensor contraction
        Davidson threshold :  0.10D-03

 solvent parameters
 solvname_short: toluene 
 solvname_long:  toluene                            
 dielec:        2.3741
 dielecinf:     2.2383

 solvent accessible surface
 --------------------------

 ---------- ATOMIC COORDINATES (A.U.) ------------ VDWR(ANG.) --
     1    0.00000000    0.00000000    0.22526865     1.720
     2    1.43493461    0.00000000   -0.90107458     1.300
     3   -1.43493461    0.00000000   -0.90107458     1.300
 number of segments per atom =         32
 number of   points per atom =         32
 atom (   nspa,  nppa )
 ----------------------
    1 (     20,     0 )       0
    2 (     20,     0 )       0
    3 (     20,     0 )       0
 number of -cosmo- surface points =       60
 molecular surface =     40.787 angstrom**2
 molecular volume  =     20.919 angstrom**3
 G(cav/disp)       =      1.064 kcal/mol

            Memory Information
            ------------------
          Available GA space size is          26213824 doubles
          Available MA space size is          26212196 doubles
          Length of a trial vector is           95
          Estimated peak GA usage is           1926294 doubles
          Estimated peak MA usage is             18000 doubles

    5 smallest eigenvalue differences (eV) 
--------------------------------------------------------
  No. Spin  Occ  Vir  Irrep   E(Occ)    E(Vir)   E(Diff)
--------------------------------------------------------
    1    1    5    6 b2       -0.294     0.055     9.507
    2    1    4    6 a1       -0.370     0.055    11.566
    3    1    5    7 a2       -0.294     0.136    11.693
    4    1    4    7 b1       -0.370     0.136    13.752
    5    1    3    6 b1       -0.511     0.055    15.404
--------------------------------------------------------

  Entering Davidson iterations
  Restricted singlet excited states

  Iter   NTrls   NConv    DeltaV     DeltaE      Time   
  ----  ------  ------  ---------  ---------  --------- 
    1      5       0     0.25E+00   0.10+100        2.4
    2     15       0     0.34E-01   0.13E-01        3.1
    3     25       0     0.59E-02   0.45E-03        3.0
    4     35       1     0.12E-02   0.98E-05        2.9
    5     43       4     0.19E-03   0.26E-06        2.2
    6     45       5     0.38E-04   0.48E-08        0.8
  ----  ------  ------  ---------  ---------  --------- 
  Convergence criterion met

  Ground state a1        -76.364739155922 a.u.

  ----------------------------------------------------------------------------
  Root   1 singlet b2             0.289915760 a.u.                7.8890 eV 
  ----------------------------------------------------------------------------
     Transition Moments    X -0.00000   Y  0.31184   Z  0.00000
     Transition Moments   XX -0.00000  XY -0.00000  XZ  0.00000
     Transition Moments   YY -0.00000  YZ -0.07886  ZZ -0.00000
     Dipole Oscillator Strength                    0.0187949696
     Electric Quadrupole                           0.0000000008
     Magnetic Dipole                               0.0000000709
     Total Oscillator Strength                     0.0187950413

     Occ.    5  b2  ---  Virt.    6  a1   0.99995 X
  ----------------------------------------------------------------------------
  Root   2 singlet a2             0.361324763 a.u.                9.8322 eV 
  ----------------------------------------------------------------------------
     Transition Moments    X  0.00000   Y  0.00000   Z -0.00000
     Transition Moments   XX  0.00000  XY -0.30222  XZ -0.00000
     Transition Moments   YY  0.00000  YZ -0.00000  ZZ  0.00000
     Dipole Oscillator Strength                    0.0000000000
     Electric Quadrupole                           0.0000000229
     Magnetic Dipole                               0.0000002580
     Total Oscillator Strength                     0.0000002809

     Occ.    5  b2  ---  Virt.    7  b1   0.99892 X
  ----------------------------------------------------------------------------
  Root   3 singlet a1             0.374551498 a.u.               10.1921 eV 
  ----------------------------------------------------------------------------
     Transition Moments    X -0.00000   Y  0.00000   Z -0.56396
     Transition Moments   XX  0.50771  XY  0.00000  XZ  0.00000
     Transition Moments   YY  0.08887  YZ  0.00000  ZZ  0.41185
     Dipole Oscillator Strength                    0.0794187338
     Electric Quadrupole                           0.0000000135
     Magnetic Dipole                               0.0000000000
     Total Oscillator Strength                     0.0794187472

     Occ.    3  b1  ---  Virt.    7  b1   0.09079 X
     Occ.    4  a1  ---  Virt.    6  a1  -0.99530 X
  ----------------------------------------------------------------------------
  Root   4 singlet b1             0.450080834 a.u.               12.2473 eV 
  ----------------------------------------------------------------------------
     Transition Moments    X -0.43528   Y  0.00000   Z -0.00000
     Transition Moments   XX  0.00000  XY -0.00000  XZ  0.60169
     Transition Moments   YY  0.00000  YZ -0.00000  ZZ  0.00000
     Dipole Oscillator Strength                    0.0568504047
     Electric Quadrupole                           0.0000001758
     Magnetic Dipole                               0.0000003673
     Total Oscillator Strength                     0.0568509478

     Occ.    3  b1  ---  Virt.    6  a1   0.10408 X
     Occ.    4  a1  ---  Virt.    7  b1  -0.99370 X
  ----------------------------------------------------------------------------
  Root   5 singlet b1             0.515930440 a.u.               14.0392 eV 
  ----------------------------------------------------------------------------
     Transition Moments    X -0.89547   Y -0.00000   Z  0.00000
     Transition Moments   XX -0.00000  XY -0.00000  XZ  0.83985
     Transition Moments   YY -0.00000  YZ  0.00000  ZZ -0.00000
     Dipole Oscillator Strength                    0.2758050137
     Electric Quadrupole                           0.0000005158
     Magnetic Dipole                               0.0000000227
     Total Oscillator Strength                     0.2758055522

     Occ.    3  b1  ---  Virt.    6  a1  -0.99382 X
     Occ.    4  a1  ---  Virt.    7  b1  -0.10345 X
 ------------------------------------------------------------------------
 tddft_analysis: target root not found                   0
 ------------------------------------------------------------------------
 ------------------------------------------------------------------------
  current input line : 
    43: task tddft optimize
 ------------------------------------------------------------------------
 ------------------------------------------------------------------------
 This error has not yet been assigned to a category
 ------------------------------------------------------------------------
 For more information see the NWChem manual at https://github.com/nwchemgit/nwchem/wiki


 For further details see manual section: No section for this category                                                                                                                                                                                                                                   
