 argument  1 = test.nw



============================== echo of input deck ==============================
echo
start tddftgrad_water_opt
title "TDDFT/B3LYP/def2-TZVP/COSMO geometry optimization of Water"
memory total 16 gb

# Charge of the system
charge 0

# XYZ coordinates in Angstrom units (default)
# Automatic symmetry detection enabled (default tol 0.01). Disable with noautosym.
geometry units angstroms autosym 0.1
O     0.00000000     0.00000000     0.12982363
H     0.75933475     0.00000000    -0.46621158
H    -0.75933475     0.00000000    -0.46621158
end

#basis spherical
#* library "def2-svp"
#end
basis "ao basis" spherical
 * library def2-tzvp
end
basis "cd basis" # reduces cost from N 4 --> N3
 * library "Weigend Coulomb Fitting"
end
#ecp spherical # Reduces the cost of calculation for heavy elements
# * library Stuttgart_RSC_1997_ECP
#end

driver
  clear
  maxiter 100
end

dft
  xc b3lyp
  iterations 500
  grid xfine
  disp vdw 4
end

cosmo
  solvent toluene
end

# Optimize geometry
#task dft optimize

## Run property calculation after the geometry optimization to
## create Molden file for plotting molecular orbitals
#property
#  moldenfile
#  molden_norm none
#end
#task dft property

# Calculate numerical frequencies
# With COSMO, only numerical frequencies are possible
#task dft freq numerical
# For analytical hessians
# Done with in-core algorithm (6.8) -> small systems only!
# task dft freq

# Final property analysis with MO vector printout
#dft
#  print "final vectors analysis"
#end
#property
#  mulliken
#  dipole
#end
#task dft property
#
## Calcul du gap HOMO-LUMO
#set dft:print "HOMO-LUMO Gap"
#task dft energy

tddft
  nroots 5
  notriplet
  algorithm 1
  target 1
  targetsym a
  civecs
  grad
    root 1
  end

end
task tddft gradient

## Calcul des forces d'oscillateur et autres propriétés
#tddft
#  nroots 5
#  notriplet
#end
#task tddft optimize
#task tddft energy
================================================================================


                                         
                                         


             Northwest Computational Chemistry Package (NWChem) 7.0.2
             --------------------------------------------------------


                    Environmental Molecular Sciences Laboratory
                       Pacific Northwest National Laboratory
                                Richland, WA 99352

                              Copyright (c) 1994-2020
                       Pacific Northwest National Laboratory
                            Battelle Memorial Institute

             NWChem is an open-source computational chemistry package
                        distributed under the terms of the
                      Educational Community License (ECL) 2.0
             A copy of the license is included with this distribution
                              in the LICENSE.TXT file

                                  ACKNOWLEDGMENT
                                  --------------

            This software and its documentation were developed at the
            EMSL at Pacific Northwest National Laboratory, a multiprogram
            national laboratory, operated for the U.S. Department of Energy
            by Battelle under Contract Number DE-AC05-76RL01830. Support
            for this work was provided by the Department of Energy Office
            of Biological and Environmental Research, Office of Basic
            Energy Sciences, and the Office of Advanced Scientific Computing.


           Job information
           ---------------

    hostname        = taamangtchu-Aspire-A515-45
    program         = nwchem
    date            = Thu Jul 18 11:24:21 2024

    compiled        = Sat_Apr_09_17:12:10_2022
    source          = /build/nwchem-f1f4gx/nwchem-7.0.2/build-openmpi
    nwchem branch   = 7.0.2
    nwchem revision = N/A
    ga revision     = 5.8.1
    use scalapack   = T
    input           = test.nw
    prefix          = tddftgrad_water_opt.
    data base       = ./tddftgrad_water_opt.db
    status          = startup
    nproc           =        1
    time left       =     -1s



           Memory information
           ------------------

    heap     =  536870906 doubles =   4096.0 Mbytes
    stack    =  536870911 doubles =   4096.0 Mbytes
    global   = 1073741824 doubles =   8192.0 Mbytes (distinct from heap & stack)
    total    = 2147483641 doubles =  16384.0 Mbytes
    verify   = yes
    hardfail = no 


           Directory information
           ---------------------

  0 permanent = .
  0 scratch   = .




                                NWChem Input Module
                                -------------------


            TDDFT/B3LYP/def2-TZVP/COSMO geometry optimization of Water
            ----------------------------------------------------------

 Scaling coordinates for geometry "geometry" by  1.889725989
 (inverse scale =  0.529177249)

 CS  symmetry detected

          ------
          auto-z
          ------
  no constraints, skipping    0.0000000000000000     
  no constraints, skipping    0.0000000000000000     


                             Geometry "geometry" -> ""
                             -------------------------

 Output coordinates in angstroms (scale by  1.889725989 to convert to a.u.)

  No.       Tag          Charge          X              Y              Z
 ---- ---------------- ---------- -------------- -------------- --------------
    1 O                    8.0000     0.11920704     0.00000000     0.00000000
    2 H                    1.0000    -0.47682817     0.00000000     0.75933475
    3 H                    1.0000    -0.47682817     0.00000000    -0.75933475

      Atomic Mass 
      ----------- 

      O                 15.994910
      H                  1.007825


 Effective nuclear repulsion energy (a.u.)       9.1194413826

            Nuclear Dipole moment (a.u.) 
            ----------------------------
        X                 Y               Z
 ---------------- ---------------- ----------------
     0.0000000000     0.0000000000     0.0000000000

      Symmetry information
      --------------------

 Group name             Cs        
 Group number              2
 Group order               2
 No. of unique centers     2

      Symmetry unique atoms

     1    2



                                Z-matrix (autoz)
                                -------- 

 Units are Angstrom for bonds and degrees for angles

      Type          Name      I     J     K     L     M      Value
      ----------- --------  ----- ----- ----- ----- ----- ----------
    1 Stretch                  1     2                       0.96532
    2 Stretch                  1     3                       0.96532
    3 Bend                     2     1     3               103.74015


            XYZ format geometry
            -------------------
     3
 geometry
 O                     0.11920704     0.00000000     0.00000000
 H                    -0.47682817     0.00000000     0.75933475
 H                    -0.47682817     0.00000000    -0.75933475

 ==============================================================================
                                internuclear distances
 ------------------------------------------------------------------------------
       center one      |      center two      | atomic units |  angstroms
 ------------------------------------------------------------------------------
    2 H                |   1 O                |     1.82419  |     0.96532
    3 H                |   1 O                |     1.82419  |     0.96532
 ------------------------------------------------------------------------------
                         number of included internuclear distances:          2
 ==============================================================================



 ==============================================================================
                                 internuclear angles
 ------------------------------------------------------------------------------
        center 1       |       center 2       |       center 3       |  degrees
 ------------------------------------------------------------------------------
    2 H                |   1 O                |   3 H                |   103.74
 ------------------------------------------------------------------------------
                            number of included internuclear angles:          1
 ==============================================================================





 Summary of "ao basis" -> "" (spherical)
 ------------------------------------------------------------------------------
       Tag                 Description            Shells   Functions and Types
 ---------------- ------------------------------  ------  ---------------------
 *                         def2-tzvp                  on all atoms 




 Summary of "cd basis" -> "" (cartesian)
 ------------------------------------------------------------------------------
       Tag                 Description            Shells   Functions and Types
 ---------------- ------------------------------  ------  ---------------------
 *                  Weigend Coulomb Fitting           on all atoms 



  Deleted DRIVER restart files 

 tddft_input: filename not found; default name will be used

                                 NWChem DFT Module
                                 -----------------


            TDDFT/B3LYP/def2-TZVP/COSMO geometry optimization of Water


                      Basis "ao basis" -> "ao basis" (spherical)
                      -----
  O (Oxygen)
  ----------
            Exponent  Coefficients 
       -------------- ---------------------------------------------------------
  1 S  2.70323826E+04  0.000217
  1 S  4.05238714E+03  0.001684
  1 S  9.22327227E+02  0.008740
  1 S  2.61240710E+02  0.035240
  1 S  8.53546414E+01  0.111535
  1 S  3.10350352E+01  0.255890

  2 S  1.22608607E+01  0.397687
  2 S  4.99870760E+00  0.246278

  3 S  1.17031082E+00  1.000000

  4 S  4.64747410E-01  1.000000

  5 S  1.85045364E-01  1.000000

  6 P  6.32749548E+01  0.006069
  6 P  1.46270494E+01  0.041913
  6 P  4.45012235E+00  0.161538
  6 P  1.52757996E+00  0.357070

  7 P  5.29351179E-01  1.000000

  8 P  1.74784213E-01  1.000000

  9 D  2.31400000E+00  1.000000

 10 D  6.45000000E-01  1.000000

 11 F  1.42800000E+00  1.000000

  H (Hydrogen)
  ------------
            Exponent  Coefficients 
       -------------- ---------------------------------------------------------
  1 S  3.40613410E+01  0.006025
  1 S  5.12357460E+00  0.045021
  1 S  1.16466260E+00  0.201897

  2 S  3.27230410E-01  1.000000

  3 S  1.03072410E-01  1.000000

  4 P  8.00000000E-01  1.000000



 Summary of "ao basis" -> "ao basis" (spherical)
 ------------------------------------------------------------------------------
       Tag                 Description            Shells   Functions and Types
 ---------------- ------------------------------  ------  ---------------------
 O                         def2-tzvp                11       31   5s3p2d1f
 H                         def2-tzvp                 4        6   3s1p


                      Basis "cd basis" -> "cd basis" (cartesian)
                      -----
  O (Oxygen)
  ----------
            Exponent  Coefficients 
       -------------- ---------------------------------------------------------
  1 S  2.87682166E+03  0.144356
  1 S  1.00474430E+03  0.292004
  1 S  3.69757995E+02  1.025852
  1 S  1.42944240E+02  2.287552
  1 S  5.78366425E+01  3.608024
  1 S  2.43864983E+01  2.373787
  1 S  1.06622662E+01  0.048941

  2 S  4.80704370E+00  1.000000

  3 S  2.22107700E+00  1.000000

  4 S  1.04477950E+00  1.000000

  5 S  4.96842500E-01  1.000000

  6 S  2.37138400E-01  1.000000

  7 P  6.42613382E+01 -0.012666
  7 P  1.63006076E+01 -0.037874

  8 P  4.35505420E+00  1.000000

  9 P  1.20195540E+00  1.000000

 10 P  3.35419600E-01  1.000000

 11 D  9.21466110E+00 -0.059791
 11 D  2.84352510E+00 -0.084672

 12 D  9.95575900E-01  1.000000

 13 D  3.64944100E-01  1.000000

 14 F  2.64201150E+00  1.000000
 14 F  7.34561300E-01  1.000000

 15 G  1.39310000E+00  1.000000

  H (Hydrogen)
  ------------
            Exponent  Coefficients 
       -------------- ---------------------------------------------------------
  1 S  1.56752927E+01  0.018689
  1 S  3.60635780E+00  0.063167
  1 S  1.20800160E+00  0.120461

  2 S  4.72679400E-01  1.000000

  3 S  2.01810000E-01  1.000000

  4 P  2.02813650E+00  1.000000
  4 P  5.35873000E-01  1.000000

  5 D  2.21651240E+00  1.000000



 Summary of "cd basis" -> "cd basis" (cartesian)
 ------------------------------------------------------------------------------
       Tag                 Description            Shells   Functions and Types
 ---------------- ------------------------------  ------  ---------------------
 O                  Weigend Coulomb Fitting         15       61   6s4p3d1f1g
 H                  Weigend Coulomb Fitting          5       12   3s1p1d




 Summary of "ao basis" -> "ao basis" (spherical)
 ------------------------------------------------------------------------------
       Tag                 Description            Shells   Functions and Types
 ---------------- ------------------------------  ------  ---------------------
 O                         def2-tzvp                11       31   5s3p2d1f
 H                         def2-tzvp                 4        6   3s1p


      Symmetry analysis of basis
      --------------------------

        a'         27
        a"         16


 solvent parameters
 solvname_short: toluene 
 solvname_long:  toluene                            
 dielec:        2.3741
 dielecinf:     2.2383

          ---------------
          -cosmo- solvent
          ---------------
 Cosmo: York-Karplus, doi: 10.1021/jp992097l
 dielectric constant -eps-     =   2.37
 screen = (eps-1)/(eps    )    =   0.57879
 surface charge correction     = lagrangian
 -lineq- algorithm             =   0
 -bem- low  level              =   2
 -bem- from -octahedral-
 gaussian surface charge width =   0.98000
 degree of switching           =   1.00000
 switching function tolerance  =   0.00010
 atomic radii = 
 --------------
    1  8.000  1.720
    2  1.000  1.300
    3  1.000  1.300

 solvent accessible surface
 --------------------------

 ---------- ATOMIC COORDINATES (A.U.) ------------ VDWR(ANG.) --
     1    0.22526865    0.00000000    0.00000000     1.720
     2   -0.90107458    0.00000000    1.43493461     1.300
     3   -0.90107458    0.00000000   -1.43493461     1.300
 number of segments per atom =         32
 number of   points per atom =         32
 atom (   nspa,  nppa )
 ----------------------
    1 (     20,     0 )       0
    2 (     20,     0 )       0
    3 (     20,     0 )       0
 number of -cosmo- surface points =       60
 molecular surface =     40.787 angstrom**2
 molecular volume  =     20.919 angstrom**3
 G(cav/disp)       =      1.064 kcal/mol
 ...... end of -cosmo- initialization ......


  int_init: cando_txs set to always be  F
  Caching 1-el integrals 

            General Information
            -------------------
          SCF calculation type: DFT
          Wavefunction type:  closed shell.
          No. of atoms     :     3
          No. of electrons :    10
           Alpha electrons :     5
            Beta electrons :     5
          Charge           :     0
          Spin multiplicity:     1
          Use of symmetry is: off; symmetry adaption is: on 
          Maximum number of iterations: 500
          AO basis - number of functions:    43
                     number of shells:    19
          A Charge density fitting basis will be used.
          CD basis - number of functions:    85
                     number of shells:    25
          Convergence on energy requested:  1.00D-06
          Convergence on density requested:  1.00D-05
          Convergence on gradient requested:  5.00D-04

              XC Information
              --------------
                         B3LYP Method XC Potential
                     Hartree-Fock (Exact) Exchange  0.200          
                        Slater Exchange Functional  0.800 local    
                    Becke 1988 Exchange Functional  0.720 non-local
              Lee-Yang-Parr Correlation Functional  0.810          
                  VWN I RPA Correlation Functional  0.190 local    

             Grid Information
             ----------------
          Grid used for XC integration:  xfine     
          Radial quadrature: Mura-Knowles        
          Angular quadrature: Lebedev. 
          Tag              B.-S. Rad. Rad. Pts. Rad. Cut. Ang. Pts.
          ---              ---------- --------- --------- ---------
          O                   0.60      100           6.0      1454
          H                   0.35      100           8.0      1202
          Grid pruning is: on 
          Number of quadrature shells:   300
          Spatial weights used:  Erf1

          Convergence Information
          -----------------------
          Convergence aids based upon iterative change in 
          total energy or number of iterations. 
          Levelshifting, if invoked, occurs when the 
          HOMO/LUMO gap drops below (HL_TOL):  1.00D-02
          DIIS, if invoked, will attempt to extrapolate 
          using up to (NFOCK): 10 stored Fock matrices.

                    Damping( 0%)  Levelshifting(0.5)       DIIS
                  --------------- ------------------- ---------------
          dE  on:    start            ASAP                start   
          dE off:    2 iters        500 iters           500 iters 


      Screening Tolerance Information
      -------------------------------
          Density screening/tol_rho:  1.00D-10
          AO Gaussian exp screening on grid/accAOfunc:  14
          CD Gaussian exp screening on grid/accCDfunc:  20
          XC Gaussian exp screening on grid/accXCfunc:  20
          Schwarz screening/accCoul:  1.00D-08

      Dispersion Parameters
      ---------------------

           DFT-D3BJ Model   
          s6 scale factor  :        1.000000000000
          s8 scale factor  :        1.988900000000
          a1 parameter     :        0.398100000000
          a2 parameter     :        4.421100000000
              vdW contrib  :       -0.000573912586


      Superposition of Atomic Density Guess
      -------------------------------------

 Sum of atomic energies:         -75.78392565

      Non-variational initial energy
      ------------------------------

 Total energy =     -75.934011
 1-e energy   =    -121.631546
 2-e energy   =      36.578094
 HOMO         =      -0.477293
 LUMO         =       0.059074


      Symmetry analysis of molecular orbitals - initial
      -------------------------------------------------

  Numbering of irreducible representations: 

     1 a'          2 a"      

  Orbital symmetries:

     1 a'          2 a'          3 a"          4 a'          5 a'      
     6 a'          7 a"          8 a"          9 a'         10 a'      
    11 a'         12 a"         13 a'         14 a'         15 a"      

   Time after variat. SCF:      0.2

      3 Center 2 Electron Integral Information
      ----------------------------------------
          Maximum number of 3-center 2e- integrals is:          157165.
            This is reduced with Schwarz screening to:          156060.
            Incore requires a per proc buffer size of:          122486.
          Minimum dble words available (all nodes) is:      1073739348
                   This is reduced (for later use) to:      1073134532
                      proc 0 Suggested buffer size is:          122486
                         Max Suggested buffer size is:          122486
                              no. integral batches is:            1000

           0.122 MW buffer allocated for incore 3-center 
          2e- integral storage on stack. 
   Time prior to 1st pass:      0.2

 Integral file          = ./tddftgrad_water_opt.aoints.0
 Record size in doubles =  65536        No. of integs per rec  =  43688
 Max. records in memory =     11        Max. records in file   =  59437
 No. of bits per label  =      8        No. of bits per value  =     64


 #quartets = 1.814D+04 #integrals = 1.995D+05 #direct =  0.0% #cached =100.0%


 Grid_pts file          = ./tddftgrad_water_opt.gridpts.0
 Record size in doubles =  12289        No. of grid_pts per rec  =   3070
 Max. records in memory =    158        Max. recs in file   =    316975


           Memory utilization after 1st SCF pass: 
           Heap Space remaining (MW):      534.21           534206210
          Stack Space remaining (MW):      536.75           536747012

   convergence    iter        energy       DeltaE   RMS-Dens  Diis-err    time
 ---------------- ----- ----------------- --------- --------- ---------  ------
     COSMO gas phase
 d= 0,ls=0.0,diis     1    -76.4231606628 -8.55D+01  1.39D-02  4.23D-01     1.1
 d= 0,ls=0.0,diis     2    -76.4084705082  1.47D-02  7.40D-03  6.36D-01     1.5
 d= 0,ls=0.0,diis     3    -76.4621590425 -5.37D-02  9.79D-04  1.89D-02     2.0
 d= 0,ls=0.0,diis     4    -76.4635955940 -1.44D-03  1.08D-04  2.41D-04     2.4
 d= 0,ls=0.0,diis     5    -76.4636152932 -1.97D-05  1.35D-05  1.96D-06     2.8
 d= 0,ls=0.0,diis     6    -76.4636154759 -1.83D-07  1.06D-06  5.75D-09     3.2

           Memory utilization after 1st SCF pass: 
           Heap Space remaining (MW):      534.21           534206210
          Stack Space remaining (MW):      536.75           536747012

   convergence    iter        energy       DeltaE   RMS-Dens  Diis-err    time
 ---------------- ----- ----------------- --------- --------- ---------  ------
     COSMO solvation phase
 d= 0,ls=0.0,diis     1    -76.4697962879 -6.18D-03  1.34D-03  1.89D-03     3.6
 d= 0,ls=0.0,diis     2    -76.4701764373 -3.80D-04  3.49D-04  9.68D-04     4.0
 d= 0,ls=0.0,diis     3    -76.4702383839 -6.19D-05  1.45D-04  3.10D-04     4.5
 d= 0,ls=0.0,diis     4    -76.4702628550 -2.45D-05  2.24D-05  3.43D-06     4.9
 d= 0,ls=0.0,diis     5    -76.4702631445 -2.89D-07  3.55D-06  5.58D-08     5.3


         Total DFT energy =      -76.470263144469
      One electron energy =     -123.052249144191
           Coulomb energy =       46.761112450304
    Exchange-Corr. energy =       -9.339644155040
 Nuclear repulsion energy =        9.119441382552

    Dispersion correction =       -0.000573912586

             COSMO energy =        0.041650234492

 Numeric. integr. density =       10.000000010088

     Total iterative time =      5.1s


                                   COSMO solvation results
                                   -----------------------

                 gas phase energy =       -76.463615475890
                 sol phase energy =       -76.470263144469
 (electrostatic) solvation energy =         0.006647668580 (    4.17 kcal/mol)

                  Occupations of the irreducible representations
                  ----------------------------------------------

                     irrep           alpha         beta
                     --------     --------     --------
                     a'                4.0          4.0
                     a"                1.0          1.0


                       DFT Final Molecular Orbital Analysis
                       ------------------------------------

 Vector    1  Occ=2.000000D+00  E=-1.912965D+01  Symmetry=a'
              MO Center=  1.2D-01,  2.2D-10, -4.0D-22, r^2= 1.5D-02
   Bfn.  Coefficient  Atom+Function         Bfn.  Coefficient  Atom+Function  
  ----- ------------  ---------------      ----- ------------  ---------------
     2      0.639767  1 O  s                  1      0.435060  1 O  s          
     3      0.034155  1 O  s          

 Vector    2  Occ=2.000000D+00  E=-1.014722D+00  Symmetry=a'
              MO Center= -7.7D-02, -4.5D-09, -7.0D-09, r^2= 5.0D-01
   Bfn.  Coefficient  Atom+Function         Bfn.  Coefficient  Atom+Function  
  ----- ------------  ---------------      ----- ------------  ---------------
     4      0.437505  1 O  s                  3      0.336174  1 O  s          
     2     -0.230231  1 O  s                  5      0.163667  1 O  s          
     1     -0.097937  1 O  s                 32      0.093333  2 H  s          
    38      0.093333  3 H  s                  6     -0.084575  1 O  px         
     9     -0.071212  1 O  px                33      0.066624  2 H  s          

 Vector    3  Occ=2.000000D+00  E=-5.310929D-01  Symmetry=a"
              MO Center= -9.2D-02,  1.3D-10,  7.9D-09, r^2= 7.7D-01
   Bfn.  Coefficient  Atom+Function         Bfn.  Coefficient  Atom+Function  
  ----- ------------  ---------------      ----- ------------  ---------------
     8      0.387543  1 O  pz                11      0.299929  1 O  pz         
    33      0.176923  2 H  s                 39     -0.176923  3 H  s          
    32      0.147168  2 H  s                 38     -0.147168  3 H  s          
    14      0.134936  1 O  pz                34      0.059757  2 H  s          
    40     -0.059757  3 H  s          

 Vector    4  Occ=2.000000D+00  E=-3.977544D-01  Symmetry=a'
              MO Center=  2.0D-01, -4.7D-09, -5.0D-18, r^2= 7.2D-01
   Bfn.  Coefficient  Atom+Function         Bfn.  Coefficient  Atom+Function  
  ----- ------------  ---------------      ----- ------------  ---------------
     6      0.417122  1 O  px                 9      0.321505  1 O  px         
    12      0.244134  1 O  px                 5      0.221985  1 O  s          
     4      0.185821  1 O  s                  3      0.134375  1 O  s          
    33     -0.120019  2 H  s                 39     -0.120019  3 H  s          
    32     -0.087676  2 H  s                 38     -0.087676  3 H  s          

 Vector    5  Occ=2.000000D+00  E=-3.210783D-01  Symmetry=a'
              MO Center=  9.1D-02,  1.4D-08, -3.2D-12, r^2= 6.8D-01
   Bfn.  Coefficient  Atom+Function         Bfn.  Coefficient  Atom+Function  
  ----- ------------  ---------------      ----- ------------  ---------------
     7      0.475098  1 O  py                10      0.381462  1 O  py         
    13      0.344261  1 O  py         

 Vector    6  Occ=0.000000D+00  E= 2.235602D-02  Symmetry=a'
              MO Center= -6.7D-01, -5.5D-09,  5.1D-09, r^2= 3.5D+00
   Bfn.  Coefficient  Atom+Function         Bfn.  Coefficient  Atom+Function  
  ----- ------------  ---------------      ----- ------------  ---------------
     5      1.111288  1 O  s                 34     -0.928489  2 H  s          
    40     -0.928489  3 H  s                 12     -0.343694  1 O  px         
     3      0.190177  1 O  s                  6     -0.154296  1 O  px         
     9     -0.096828  1 O  px                 2     -0.086527  1 O  s          
    33     -0.082757  2 H  s                 39     -0.082757  3 H  s          

 Vector    7  Occ=0.000000D+00  E= 1.005709D-01  Symmetry=a"
              MO Center= -7.0D-01, -1.1D-10, -4.1D-09, r^2= 4.0D+00
   Bfn.  Coefficient  Atom+Function         Bfn.  Coefficient  Atom+Function  
  ----- ------------  ---------------      ----- ------------  ---------------
    34      1.626827  2 H  s                 40     -1.626827  3 H  s          
    14     -0.658956  1 O  pz                 8     -0.255633  1 O  pz         
    11     -0.121192  1 O  pz                32      0.037613  2 H  s          
    38     -0.037613  3 H  s                 37      0.035919  2 H  pz         
    43      0.035919  3 H  pz                35     -0.033724  2 H  px         

 Vector    8  Occ=0.000000D+00  E= 3.509685D-01  Symmetry=a"
              MO Center=  1.3D-01,  1.6D-10, -5.4D-10, r^2= 2.5D+00
   Bfn.  Coefficient  Atom+Function         Bfn.  Coefficient  Atom+Function  
  ----- ------------  ---------------      ----- ------------  ---------------
    33      1.446756  2 H  s                 39     -1.446756  3 H  s          
    14     -1.245421  1 O  pz                34     -0.501319  2 H  s          
    40      0.501319  3 H  s                 11     -0.325066  1 O  pz         
    23     -0.127898  1 O  d  1              32      0.123259  2 H  s          
    38     -0.123259  3 H  s                  8     -0.103947  1 O  pz         

 Vector    9  Occ=0.000000D+00  E= 4.007464D-01  Symmetry=a'
              MO Center=  2.9D-01,  3.0D-09, -7.2D-09, r^2= 2.5D+00
   Bfn.  Coefficient  Atom+Function         Bfn.  Coefficient  Atom+Function  
  ----- ------------  ---------------      ----- ------------  ---------------
    12      1.566442  1 O  px                33      1.102701  2 H  s          
    39      1.102701  3 H  s                  4     -0.802365  1 O  s          
     5     -0.363619  1 O  s                  9     -0.288056  1 O  px         
    34     -0.211935  2 H  s                 40     -0.211935  3 H  s          
     6     -0.171411  1 O  px                 2      0.070252  1 O  s          

 Vector   10  Occ=0.000000D+00  E= 4.155529D-01  Symmetry=a'
              MO Center=  1.2D-01,  1.1D-08,  5.0D-20, r^2= 2.2D+00
   Bfn.  Coefficient  Atom+Function         Bfn.  Coefficient  Atom+Function  
  ----- ------------  ---------------      ----- ------------  ---------------
    13      1.233778  1 O  py                10     -0.702663  1 O  py         
     7     -0.318879  1 O  py         

 Vector   11  Occ=0.000000D+00  E= 4.328708D-01  Symmetry=a'
              MO Center= -2.1D-01, -2.3D-08, -1.9D-09, r^2= 2.2D+00
   Bfn.  Coefficient  Atom+Function         Bfn.  Coefficient  Atom+Function  
  ----- ------------  ---------------      ----- ------------  ---------------
    33      1.305171  2 H  s                 39      1.305171  3 H  s          
     9      0.711440  1 O  px                34     -0.629260  2 H  s          
    40     -0.629260  3 H  s                  5     -0.528417  1 O  s          
     4     -0.407946  1 O  s                  6      0.294970  1 O  px         
    12     -0.131841  1 O  px                32      0.106834  2 H  s          

 Vector   12  Occ=0.000000D+00  E= 5.675531D-01  Symmetry=a"
              MO Center= -1.4D-01,  3.0D-11,  8.6D-09, r^2= 3.1D+00
   Bfn.  Coefficient  Atom+Function         Bfn.  Coefficient  Atom+Function  
  ----- ------------  ---------------      ----- ------------  ---------------
    14      1.996051  1 O  pz                34     -1.655001  2 H  s          
    40      1.655001  3 H  s                 11     -0.764458  1 O  pz         
     8     -0.354369  1 O  pz                33      0.144729  2 H  s          
    39     -0.144729  3 H  s                 32      0.067100  2 H  s          
    38     -0.067100  3 H  s                 23      0.053602  1 O  d  1       

 Vector   13  Occ=0.000000D+00  E= 5.945280D-01  Symmetry=a'
              MO Center= -3.7D-01,  1.1D-08,  2.8D-16, r^2= 2.7D+00
   Bfn.  Coefficient  Atom+Function         Bfn.  Coefficient  Atom+Function  
  ----- ------------  ---------------      ----- ------------  ---------------
     5      4.860149  1 O  s                  4     -2.248235  1 O  s          
    12     -1.323754  1 O  px                34     -0.986179  2 H  s          
    40     -0.986179  3 H  s                 33     -0.926369  2 H  s          
    39     -0.926369  3 H  s                  2      0.106131  1 O  s          
     3      0.098731  1 O  s                  6      0.079723  1 O  px         

 Vector   14  Occ=0.000000D+00  E= 1.153823D+00  Symmetry=a'
              MO Center= -1.3D-01,  7.0D-11, -4.7D-10, r^2= 1.0D+00
   Bfn.  Coefficient  Atom+Function         Bfn.  Coefficient  Atom+Function  
  ----- ------------  ---------------      ----- ------------  ---------------
     5      0.876740  1 O  s                 33     -0.574705  2 H  s          
    39     -0.574704  3 H  s                 12     -0.551247  1 O  px         
    22      0.375126  1 O  d  0              24     -0.359336  1 O  d  2       
    37      0.308513  2 H  pz                43     -0.308513  3 H  pz         
    35      0.299855  2 H  px                41      0.299855  3 H  px         

 Vector   15  Occ=0.000000D+00  E= 1.188362D+00  Symmetry=a"
              MO Center= -2.0D-01, -3.8D-10, -7.4D-10, r^2= 9.4D-01
   Bfn.  Coefficient  Atom+Function         Bfn.  Coefficient  Atom+Function  
  ----- ------------  ---------------      ----- ------------  ---------------
    21      0.552057  1 O  d -1              36      0.418847  2 H  py         
    42     -0.418847  3 H  py         

 Vector   16  Occ=0.000000D+00  E= 1.286763D+00  Symmetry=a'
              MO Center= -6.3D-02,  8.9D-11,  5.8D-10, r^2= 9.5D-01
   Bfn.  Coefficient  Atom+Function         Bfn.  Coefficient  Atom+Function  
  ----- ------------  ---------------      ----- ------------  ---------------
    20      0.675578  1 O  d -2              36     -0.377895  2 H  py         
    42     -0.377895  3 H  py                13      0.203561  1 O  py         
     7      0.097365  1 O  py                10      0.052728  1 O  py         

 Vector   17  Occ=0.000000D+00  E= 1.523283D+00  Symmetry=a"
              MO Center= -1.2D-01,  2.0D-10,  1.4D-08, r^2= 1.8D+00
   Bfn.  Coefficient  Atom+Function         Bfn.  Coefficient  Atom+Function  
  ----- ------------  ---------------      ----- ------------  ---------------
    33      2.177099  2 H  s                 39     -2.177099  3 H  s          
    23     -1.219596  1 O  d  1              14     -0.924493  1 O  pz         
    11     -0.911734  1 O  pz                34     -0.531158  2 H  s          
    40      0.531158  3 H  s                 35      0.419412  2 H  px         
    41     -0.419412  3 H  px                32     -0.375436  2 H  s          

 Vector   18  Occ=0.000000D+00  E= 1.633003D+00  Symmetry=a'
              MO Center= -1.4D-01,  9.8D-10, -8.1D-09, r^2= 1.4D+00
   Bfn.  Coefficient  Atom+Function         Bfn.  Coefficient  Atom+Function  
  ----- ------------  ---------------      ----- ------------  ---------------
    33      2.067475  2 H  s                 39      2.067475  3 H  s          
     5     -1.866065  1 O  s                 12      0.962484  1 O  px         
    24     -0.841361  1 O  d  2              22     -0.793219  1 O  d  0       
     4     -0.669428  1 O  s                  9      0.508624  1 O  px         
     3      0.382765  1 O  s                 32     -0.341552  2 H  s          

 Vector   19  Occ=0.000000D+00  E= 1.756357D+00  Symmetry=a"
              MO Center= -4.5D-01,  1.6D-11,  8.8D-11, r^2= 1.2D+00
   Bfn.  Coefficient  Atom+Function         Bfn.  Coefficient  Atom+Function  
  ----- ------------  ---------------      ----- ------------  ---------------
    37      0.553485  2 H  pz                43      0.553485  3 H  pz         
    35      0.547103  2 H  px                41     -0.547103  3 H  px         
    23      0.427790  1 O  d  1              33     -0.387756  2 H  s          
    39      0.387756  3 H  s                 14     -0.369661  1 O  pz         
    34      0.336898  2 H  s                 40     -0.336898  3 H  s          

 Vector   20  Occ=0.000000D+00  E= 1.981355D+00  Symmetry=a'
              MO Center= -3.3D-01,  2.0D-09, -5.7D-09, r^2= 1.6D+00
   Bfn.  Coefficient  Atom+Function         Bfn.  Coefficient  Atom+Function  
  ----- ------------  ---------------      ----- ------------  ---------------
     4      2.557986  1 O  s                 33     -1.936328  2 H  s          
    39     -1.936328  3 H  s                  9     -1.355850  1 O  px         
     3     -0.808946  1 O  s                 32      0.666180  2 H  s          
    38      0.666180  3 H  s                 35     -0.586758  2 H  px         
    41     -0.586758  3 H  px                37      0.568842  2 H  pz         

 Vector   21  Occ=0.000000D+00  E= 2.054019D+00  Symmetry=a'
              MO Center= -1.3D-01, -4.4D-09, -2.9D-09, r^2= 1.2D+00
   Bfn.  Coefficient  Atom+Function         Bfn.  Coefficient  Atom+Function  
  ----- ------------  ---------------      ----- ------------  ---------------
    20      0.879799  1 O  d -2              36      0.753264  2 H  py         
    42      0.753264  3 H  py                13     -0.488168  1 O  py         
     7     -0.337117  1 O  py                10      0.181939  1 O  py         

 Vector   22  Occ=0.000000D+00  E= 2.091041D+00  Symmetry=a"
              MO Center= -1.3D-01,  2.7D-10,  3.2D-09, r^2= 1.1D+00
   Bfn.  Coefficient  Atom+Function         Bfn.  Coefficient  Atom+Function  
  ----- ------------  ---------------      ----- ------------  ---------------
    21      1.068658  1 O  d -1              36     -0.758490  2 H  py         
    42      0.758490  3 H  py         

 Vector   23  Occ=0.000000D+00  E= 2.284646D+00  Symmetry=a"
              MO Center= -2.7D-01, -3.6D-10,  2.4D-10, r^2= 1.6D+00
   Bfn.  Coefficient  Atom+Function         Bfn.  Coefficient  Atom+Function  
  ----- ------------  ---------------      ----- ------------  ---------------
    11      2.139769  1 O  pz                33     -1.885122  2 H  s          
    39      1.885122  3 H  s                 34      0.810784  2 H  s          
    37      0.809788  2 H  pz                40     -0.810784  3 H  s          
    43      0.809788  3 H  pz                35     -0.712394  2 H  px         
    41      0.712394  3 H  px                32      0.507898  2 H  s          

 Vector   24  Occ=0.000000D+00  E= 2.358196D+00  Symmetry=a'
              MO Center=  1.1D-01, -6.7D-11,  2.7D-09, r^2= 1.2D+00
   Bfn.  Coefficient  Atom+Function         Bfn.  Coefficient  Atom+Function  
  ----- ------------  ---------------      ----- ------------  ---------------
     4      1.150811  1 O  s                 33     -0.953537  2 H  s          
    39     -0.953537  3 H  s                 12     -0.837209  1 O  px         
    22     -0.779365  1 O  d  0              37      0.770556  2 H  pz         
    43     -0.770556  3 H  pz                24      0.682748  1 O  d  2       
     5      0.576921  1 O  s                  3     -0.532771  1 O  s          

 Vector   25  Occ=0.000000D+00  E= 2.567539D+00  Symmetry=a"
              MO Center= -1.0D-01,  6.6D-11, -2.4D-09, r^2= 1.2D+00
   Bfn.  Coefficient  Atom+Function         Bfn.  Coefficient  Atom+Function  
  ----- ------------  ---------------      ----- ------------  ---------------
    33     -1.078778  2 H  s                 39      1.078778  3 H  s          
    14      1.058397  1 O  pz                 8      0.930839  1 O  pz         
    23      0.887997  1 O  d  1              37      0.842765  2 H  pz         
    43      0.842765  3 H  pz                35     -0.562273  2 H  px         
    41      0.562273  3 H  px                34     -0.359243  2 H  s          

 Vector   26  Occ=0.000000D+00  E= 2.595069D+00  Symmetry=a'
              MO Center= -3.2D-01, -6.2D-08, -3.1D-10, r^2= 1.0D+00
   Bfn.  Coefficient  Atom+Function         Bfn.  Coefficient  Atom+Function  
  ----- ------------  ---------------      ----- ------------  ---------------
     5      1.376104  1 O  s                 33     -1.173325  2 H  s          
    39     -1.173325  3 H  s                  4      0.926197  1 O  s          
    35     -0.919890  2 H  px                41     -0.919890  3 H  px         
    22      0.874619  1 O  d  0               6     -0.795267  1 O  px         
    12     -0.672730  1 O  px                37      0.499500  2 H  pz         

 Vector   27  Occ=0.000000D+00  E= 2.599931D+00  Symmetry=a'
              MO Center=  2.5D-03,  3.9D-08, -2.2D-10, r^2= 8.2D-01
   Bfn.  Coefficient  Atom+Function         Bfn.  Coefficient  Atom+Function  
  ----- ------------  ---------------      ----- ------------  ---------------
    10      1.673969  1 O  py                 7     -1.159724  1 O  py         
    13     -0.564135  1 O  py                36     -0.341906  2 H  py         
    42     -0.341906  3 H  py                20     -0.271634  1 O  d -2       

 Vector   28  Occ=0.000000D+00  E= 2.760127D+00  Symmetry=a'
              MO Center=  1.7D-01,  2.5D-08, -1.1D-10, r^2= 1.1D+00
   Bfn.  Coefficient  Atom+Function         Bfn.  Coefficient  Atom+Function  
  ----- ------------  ---------------      ----- ------------  ---------------
     5      3.037870  1 O  s                  4     -2.729962  1 O  s          
     3      2.269169  1 O  s                  9     -1.237401  1 O  px         
    33     -0.903969  2 H  s                 39     -0.903969  3 H  s          
    37      0.601156  2 H  pz                43     -0.601156  3 H  pz         
    24      0.477527  1 O  d  2               6      0.459523  1 O  px         

 Vector   29  Occ=0.000000D+00  E= 3.638879D+00  Symmetry=a'
              MO Center= -2.8D-01, -4.6D-11, -3.4D-09, r^2= 1.0D+00
   Bfn.  Coefficient  Atom+Function         Bfn.  Coefficient  Atom+Function  
  ----- ------------  ---------------      ----- ------------  ---------------
     4      5.316161  1 O  s                  9     -2.489563  1 O  px         
     3     -2.383815  1 O  s                 33     -1.673199  2 H  s          
    39     -1.673199  3 H  s                 37      1.196980  2 H  pz         
    43     -1.196980  3 H  pz                24      0.739090  1 O  d  2       
    32     -0.712835  2 H  s                 38     -0.712835  3 H  s          

 Vector   30  Occ=0.000000D+00  E= 3.906094D+00  Symmetry=a"
              MO Center= -1.3D-01,  2.1D-10,  2.9D-09, r^2= 9.7D-01
   Bfn.  Coefficient  Atom+Function         Bfn.  Coefficient  Atom+Function  
  ----- ------------  ---------------      ----- ------------  ---------------
    11      3.181656  1 O  pz                23      1.690534  1 O  d  1       
    33     -1.524248  2 H  s                 39      1.524248  3 H  s          
    37      0.954464  2 H  pz                43      0.954464  3 H  pz         
    32     -0.941305  2 H  s                 38      0.941305  3 H  s          
    35     -0.899703  2 H  px                41      0.899703  3 H  px         

 Vector   31  Occ=0.000000D+00  E= 5.089926D+00  Symmetry=a'
              MO Center=  1.3D-01, -5.5D-11,  9.5D-12, r^2= 4.4D-01
   Bfn.  Coefficient  Atom+Function         Bfn.  Coefficient  Atom+Function  
  ----- ------------  ---------------      ----- ------------  ---------------
    25      0.792924  1 O  f -3              27     -0.609158  1 O  f -1       
    20      0.032412  1 O  d -2       

 Vector   32  Occ=0.000000D+00  E= 5.195487D+00  Symmetry=a'
              MO Center=  7.2D-02,  3.4D-11, -2.4D-11, r^2= 4.6D-01
   Bfn.  Coefficient  Atom+Function         Bfn.  Coefficient  Atom+Function  
  ----- ------------  ---------------      ----- ------------  ---------------
    31      0.971669  1 O  f  3              29     -0.241787  1 O  f  1       
     9     -0.192992  1 O  px                 5      0.179768  1 O  s          
    33     -0.176147  2 H  s                 39     -0.176147  3 H  s          
    37      0.164540  2 H  pz                43     -0.164540  3 H  pz         
     4      0.132759  1 O  s                 19      0.119323  1 O  d  2       

 Vector   33  Occ=0.000000D+00  E= 5.364351D+00  Symmetry=a'
              MO Center=  8.2D-02, -5.9D-12, -2.0D-09, r^2= 4.9D-01
   Bfn.  Coefficient  Atom+Function         Bfn.  Coefficient  Atom+Function  
  ----- ------------  ---------------      ----- ------------  ---------------
    27      0.815861  1 O  f -1              25      0.620265  1 O  f -3       
    36     -0.267127  2 H  py                42     -0.267127  3 H  py         
    15     -0.192955  1 O  d -2              10      0.164480  1 O  py         
    20     -0.073479  1 O  d -2              13      0.070421  1 O  py         
     7     -0.061935  1 O  py         

 Vector   34  Occ=0.000000D+00  E= 5.393573D+00  Symmetry=a"
              MO Center=  4.0D-02, -1.1D-10,  2.0D-09, r^2= 4.8D-01
   Bfn.  Coefficient  Atom+Function         Bfn.  Coefficient  Atom+Function  
  ----- ------------  ---------------      ----- ------------  ---------------
    26      1.017984  1 O  f -2              16     -0.273314  1 O  d -1       
    36      0.264868  2 H  py                42     -0.264868  3 H  py         
    21     -0.073265  1 O  d -1       

 Vector   35  Occ=0.000000D+00  E= 5.440012D+00  Symmetry=a"
              MO Center=  1.1D-01,  2.1D-11,  2.9D-11, r^2= 5.2D-01
   Bfn.  Coefficient  Atom+Function         Bfn.  Coefficient  Atom+Function  
  ----- ------------  ---------------      ----- ------------  ---------------
    28      1.056467  1 O  f  0              11      0.557263  1 O  pz         
    35     -0.361068  2 H  px                41      0.361068  3 H  px         
    33     -0.314940  2 H  s                 39      0.314940  3 H  s          
    23      0.230624  1 O  d  1              14      0.146458  1 O  pz         
    32     -0.143205  2 H  s                 38      0.143205  3 H  s          

 Vector   36  Occ=0.000000D+00  E= 6.013456D+00  Symmetry=a"
              MO Center= -6.2D-02,  2.0D-11,  9.1D-10, r^2= 4.9D-01
   Bfn.  Coefficient  Atom+Function         Bfn.  Coefficient  Atom+Function  
  ----- ------------  ---------------      ----- ------------  ---------------
    11      1.596744  1 O  pz                30      0.790838  1 O  f  2       
    18      0.746191  1 O  d  1              32     -0.640287  2 H  s          
    38      0.640287  3 H  s                 37      0.617482  2 H  pz         
    43      0.617482  3 H  pz                33     -0.563309  2 H  s          
    39      0.563309  3 H  s                 23      0.512795  1 O  d  1       

 Vector   37  Occ=0.000000D+00  E= 6.191163D+00  Symmetry=a'
              MO Center=  9.0D-03, -7.7D-10, -1.2D-09, r^2= 4.2D-01
   Bfn.  Coefficient  Atom+Function         Bfn.  Coefficient  Atom+Function  
  ----- ------------  ---------------      ----- ------------  ---------------
     4      1.844048  1 O  s                  9     -0.847433  1 O  px         
    17      0.767614  1 O  d  0               3     -0.762965  1 O  s          
    19      0.605253  1 O  d  2              29      0.577730  1 O  f  1       
    32     -0.448712  2 H  s                 38     -0.448712  3 H  s          
    37      0.426371  2 H  pz                43     -0.426371  3 H  pz         

 Vector   38  Occ=0.000000D+00  E= 6.295026D+00  Symmetry=a'
              MO Center=  1.3D-01,  2.0D-10,  2.1D-10, r^2= 3.4D-01
   Bfn.  Coefficient  Atom+Function         Bfn.  Coefficient  Atom+Function  
  ----- ------------  ---------------      ----- ------------  ---------------
    15      1.160942  1 O  d -2              20     -0.702258  1 O  d -2       
    36     -0.181902  2 H  py                42     -0.181902  3 H  py         
    27      0.168440  1 O  f -1              25      0.138373  1 O  f -3       
    10      0.105414  1 O  py                13      0.048165  1 O  py         
     7     -0.026547  1 O  py         

 Vector   39  Occ=0.000000D+00  E= 6.353768D+00  Symmetry=a"
              MO Center=  1.6D-01, -1.5D-10, -1.7D-10, r^2= 3.6D-01
   Bfn.  Coefficient  Atom+Function         Bfn.  Coefficient  Atom+Function  
  ----- ------------  ---------------      ----- ------------  ---------------
    16      1.151641  1 O  d -1              21     -0.764961  1 O  d -1       
    26      0.309824  1 O  f -2              36      0.225903  2 H  py         
    42     -0.225903  3 H  py         

 Vector   40  Occ=0.000000D+00  E= 6.415790D+00  Symmetry=a'
              MO Center=  1.2D-01,  1.2D-11, -1.2D-11, r^2= 3.8D-01
   Bfn.  Coefficient  Atom+Function         Bfn.  Coefficient  Atom+Function  
  ----- ------------  ---------------      ----- ------------  ---------------
    19      0.979865  1 O  d  2              24     -0.781211  1 O  d  2       
     4     -0.671224  1 O  s                 17     -0.651682  1 O  d  0       
     9      0.538741  1 O  px                33      0.453517  2 H  s          
    39      0.453517  3 H  s                 22      0.391170  1 O  d  0       
    37     -0.369536  2 H  pz                43      0.369536  3 H  pz         

 Vector   41  Occ=0.000000D+00  E= 6.869357D+00  Symmetry=a'
              MO Center=  1.0D-01,  1.8D-10, -1.7D-09, r^2= 6.1D-01
   Bfn.  Coefficient  Atom+Function         Bfn.  Coefficient  Atom+Function  
  ----- ------------  ---------------      ----- ------------  ---------------
     4      2.964907  1 O  s                  9     -1.583962  1 O  px         
     3     -1.263763  1 O  s                 33     -1.233742  2 H  s          
    39     -1.233742  3 H  s                 22      1.113478  1 O  d  0       
    29      1.040212  1 O  f  1              32     -0.833624  2 H  s          
    38     -0.833624  3 H  s                 37      0.675302  2 H  pz         

 Vector   42  Occ=0.000000D+00  E= 6.988192D+00  Symmetry=a"
              MO Center=  1.0D-01, -6.1D-12,  2.2D-09, r^2= 5.8D-01
   Bfn.  Coefficient  Atom+Function         Bfn.  Coefficient  Atom+Function  
  ----- ------------  ---------------      ----- ------------  ---------------
    11      2.065599  1 O  pz                23      1.923052  1 O  d  1       
    33     -1.190398  2 H  s                 39      1.190398  3 H  s          
    18     -0.986170  1 O  d  1              32     -0.922244  2 H  s          
    38      0.922244  3 H  s                 30      0.797880  1 O  f  2       
    37      0.700153  2 H  pz                43      0.700153  3 H  pz         

 Vector   43  Occ=0.000000D+00  E= 4.321832D+01  Symmetry=a'
              MO Center=  1.2D-01, -1.6D-10,  7.1D-11, r^2= 1.0D-01
   Bfn.  Coefficient  Atom+Function         Bfn.  Coefficient  Atom+Function  
  ----- ------------  ---------------      ----- ------------  ---------------
     4      1.784524  1 O  s                  2      1.696141  1 O  s          
     3     -1.592893  1 O  s                  1     -1.390513  1 O  s          
     5     -0.718935  1 O  s                  9     -0.248866  1 O  px         
    33     -0.168900  2 H  s                 39     -0.168900  3 H  s          
    34      0.155385  2 H  s                 40      0.155385  3 H  s          


 center of mass
 --------------
 x =   0.09921406 y =   0.00000000 z =   0.00000000

 moments of inertia (a.u.)
 ------------------
           4.150298610647           0.000000000000           0.000000000000
           0.000000000000           6.421267634361           0.000000000000
           0.000000000000           0.000000000000           2.270969023714

     Multipole analysis of the density
     ---------------------------------

     L   x y z        total         alpha         beta         nuclear
     -   - - -        -----         -----         ----         -------
     0   0 0 0     -0.000000     -5.000000     -5.000000     10.000000

     1   1 0 0     -0.900624     -0.450312     -0.450312      0.000000
     1   0 1 0     -0.000000     -0.000000     -0.000000      0.000000
     1   0 0 1     -0.000000     -0.000000     -0.000000      0.000000

     2   2 0 0     -4.666315     -3.348077     -3.348077      2.029839
     2   1 1 0     -0.000000     -0.000000     -0.000000      0.000000
     2   1 0 1      0.000000      0.000000      0.000000      0.000000
     2   0 2 0     -5.670672     -2.835336     -2.835336      0.000000
     2   0 1 1     -0.000000     -0.000000     -0.000000      0.000000
     2   0 0 2     -3.205407     -3.661741     -3.661741      4.118075


 Parallel integral file used       5 records with       0 large values

  int_init: cando_txs set to always be  F
                                NWChem TDDFT Module
                                -------------------


            TDDFT/B3LYP/def2-TZVP/COSMO geometry optimization of Water


            General Information
            -------------------
           No. of orbitals :      86
            Alpha orbitals :      43
             Beta orbitals :      43
        Alpha frozen cores :       0
         Beta frozen cores :       0
     Alpha frozen virtuals :       0
      Beta frozen virtuals :       0
         Spin multiplicity :       1
    Number of AO functions :      43
        Use of symmetry is : off
      Symmetry adaption is : on 
         Schwarz screening :  0.10D-07

              XC Information
              --------------
                  B3LYP Method XC Potential
              Hartree-Fock (Exact) Exchange   0.20          
                 Slater Exchange Functional   0.80 local    
             Becke 1988 Exchange Functional   0.72 non-local
       Lee-Yang-Parr Correlation Functional   0.81          
           VWN I RPA Correlation Functional   0.19 local    

             TDDFT Information
             -----------------
          Calculation type : TDDFT             
         Wavefunction type : Restricted singlets
          No. of electrons :      10
           Alpha electrons :       5
            Beta electrons :       5
              No. of roots :       5
          Max subspacesize :    5000
            Max iterations :     100
               Target root :       1
           Target symmetry : a   
      Symmetry restriction : off
                 Algorithm : Incore multiple tensor contraction
        Davidson threshold :  0.10D-03

 solvent parameters
 solvname_short: toluene 
 solvname_long:  toluene                            
 dielec:        2.3741
 dielecinf:     2.2383

 solvent accessible surface
 --------------------------

 ---------- ATOMIC COORDINATES (A.U.) ------------ VDWR(ANG.) --
     1    0.22526865    0.00000000    0.00000000     1.720
     2   -0.90107458    0.00000000    1.43493461     1.300
     3   -0.90107458    0.00000000   -1.43493461     1.300
 number of segments per atom =         32
 number of   points per atom =         32
 atom (   nspa,  nppa )
 ----------------------
    1 (     20,     0 )       0
    2 (     20,     0 )       0
    3 (     20,     0 )       0
 number of -cosmo- surface points =       60
 molecular surface =     40.787 angstrom**2
 molecular volume  =     20.919 angstrom**3
 G(cav/disp)       =      1.064 kcal/mol

            Memory Information
            ------------------
          Available GA space size is        1073739975 doubles
          Available MA space size is        1073740452 doubles
          Length of a trial vector is          190
          Estimated peak GA usage is           3883256 doubles
          Estimated peak MA usage is             18000 doubles

    5 smallest eigenvalue differences (eV) 
--------------------------------------------------------
  No. Spin  Occ  Vir  Irrep   E(Occ)    E(Vir)   E(Diff)
--------------------------------------------------------
    1    1    5    6 a'       -0.321     0.022     9.345
    2    1    4    6 a'       -0.398     0.022    11.432
    3    1    5    7 a"       -0.321     0.101    11.474
    4    1    4    7 a"       -0.398     0.101    13.560
    5    1    3    6 a"       -0.531     0.022    15.060
--------------------------------------------------------

  Entering Davidson iterations
  Restricted singlet excited states

  Iter   NTrls   NConv    DeltaV     DeltaE      Time   
  ----  ------  ------  ---------  ---------  --------- 
    1      5       0     0.22E+00   0.10+100        3.2
    2     15       0     0.53E-01   0.10E-01        5.8
    3     25       0     0.10E-01   0.51E-03        5.8
    4     35       1     0.21E-02   0.21E-04        5.9
    5     43       3     0.50E-03   0.12E-05        5.0
    6     47       4     0.13E-03   0.59E-07        2.9
    7     49       5     0.87E-04   0.28E-08        1.8
  ----  ------  ------  ---------  ---------  --------- 
  Convergence criterion met

  Ground state a'        -76.470263144469 a.u.

  ----------------------------------------------------------------------------
  Root   1 singlet a'             0.288086773 a.u.                7.8392 eV 
  ----------------------------------------------------------------------------
     Transition Moments    X  0.00000   Y  0.43550   Z  0.00000
     Transition Moments   XX  0.00000  XY -0.12228  XZ  0.00000
     Transition Moments   YY -0.00000  YZ -0.00000  ZZ  0.00000
     Dipole Oscillator Strength                    0.0364265560
     Electric Quadrupole                           0.0000000019
     Magnetic Dipole                               0.0000000341
     Total Oscillator Strength                     0.0364265921

     Occ.    5  a'  ---  Virt.    6  a'   0.99958 X
  ----------------------------------------------------------------------------
  Root   2 singlet a"             0.359433668 a.u.                9.7807 eV 
  ----------------------------------------------------------------------------
     Transition Moments    X -0.00000   Y  0.00000   Z -0.00000
     Transition Moments   XX  0.00000  XY  0.00000  XZ  0.00000
     Transition Moments   YY -0.00000  YZ -0.48316  ZZ -0.00000
     Dipole Oscillator Strength                    0.0000000000
     Electric Quadrupole                           0.0000000577
     Magnetic Dipole                               0.0000000966
     Total Oscillator Strength                     0.0000001543

     Occ.    5  a'  ---  Virt.    7  a"   0.99782 X
  ----------------------------------------------------------------------------
  Root   3 singlet a'             0.371085490 a.u.               10.0978 eV 
  ----------------------------------------------------------------------------
     Transition Moments    X -0.64617   Y  0.00000   Z  0.00000
     Transition Moments   XX  0.37704  XY  0.00000  XZ  0.00000
     Transition Moments   YY -0.01429  YZ -0.00000  ZZ  0.48532
     Dipole Oscillator Strength                    0.1032940879
     Electric Quadrupole                           0.0000000188
     Magnetic Dipole                               0.0000000000
     Total Oscillator Strength                     0.1032941067

     Occ.    3  a"  ---  Virt.    7  a"   0.06385 X
     Occ.    4  a'  ---  Virt.    6  a'  -0.99617 X
  ----------------------------------------------------------------------------
  Root   4 singlet a"             0.445904088 a.u.               12.1337 eV 
  ----------------------------------------------------------------------------
     Transition Moments    X  0.00000   Y -0.00000   Z  0.40635
     Transition Moments   XX  0.00000  XY  0.00000  XZ -0.72331
     Transition Moments   YY  0.00000  YZ  0.00000  ZZ  0.00000
     Dipole Oscillator Strength                    0.0490861976
     Electric Quadrupole                           0.0000002470
     Magnetic Dipole                               0.0000001872
     Total Oscillator Strength                     0.0490866319

     Occ.    3  a"  ---  Virt.    6  a'  -0.08537 X
     Occ.    4  a'  ---  Virt.    7  a"   0.99488 X
  ----------------------------------------------------------------------------
  Root   5 singlet a"             0.504378398 a.u.               13.7248 eV 
  ----------------------------------------------------------------------------
     Transition Moments    X  0.00000   Y -0.00000   Z  0.83074
     Transition Moments   XX  0.00000  XY  0.00000  XZ -0.76063
     Transition Moments   YY  0.00000  YZ -0.00000  ZZ -0.00000
     Dipole Oscillator Strength                    0.2320584964
     Electric Quadrupole                           0.0000003953
     Magnetic Dipole                               0.0000000328
     Total Oscillator Strength                     0.2320589246

     Occ.    3  a"  ---  Virt.    6  a'   0.99400 X
     Occ.    4  a'  ---  Virt.    7  a"   0.08396 X
     Occ.    4  a'  ---  Virt.    8  a"  -0.06670 X
 ------------------------------------------------------------------------
 tddft_analysis: target root not found                   0
 ------------------------------------------------------------------------
 ------------------------------------------------------------------------
  current input line : 
    90: task tddft gradient
 ------------------------------------------------------------------------
 ------------------------------------------------------------------------
 This error has not yet been assigned to a category
 ------------------------------------------------------------------------
 For more information see the NWChem manual at https://github.com/nwchemgit/nwchem/wiki


 For further details see manual section: No section for this category                                                                                                                                                                                                                                   
