 argument  1 = test.nw



============================== echo of input deck ==============================
echo
start tddftgrad_pyridine_opt
title "TDDFT/B3LYP/def2-TZVP/COSMO geometry optimization of Water"
memory total 16 gb

# Charge of the system
charge 0

# XYZ coordinates in Angstrom units (default)
# Automatic symmetry detection enabled (default tol 0.01). Disable with noautosym.
geometry units angstroms autosym 0.1
O     0.00000000     0.00000000     0.12982363
H     0.75933475     0.00000000    -0.46621158
H    -0.75933475     0.00000000    -0.46621158
end

basis spherical
* library "def2-svp"
end

driver
  clear
  maxiter 100
end

dft
  xc b3lyp
  iterations 500
  grid xfine
  disp vdw 4
end

cosmo
  solvent toluene
end

# Options for the geometry optimizer
driver
  # Max 100 optimization steps
  maxiter 100
  # Don't use restart information from a previous run
  #clear
  # Print XYZ coordinates of each step
  #xyz
end

# Optimize geometry
task dft optimize

# Calculate numerical frequencies
# With COSMO, only numerical frequencies are possible
task dft freq numerical
# For analytical hessians
# Done with in-core algorithm (6.8) -> small systems only!
#task dft freq

# Final property analysis with MO vector printout
dft
  print "final vectors analysis"
end
property
  mulliken
end
task dft property

# Calcul du gap HOMO-LUMO
set dft:print "HOMO-LUMO Gap"
task dft energy


tddft
  nroots 5
  algorithm 1
  notriplet
  target 1
  targetsym a
  civecs
  grad
    root 1
  end

end
task tddft optimize
task tddft frequencies

tddft
  nroots 5
  algorithm 1
  nosinglet
  target 1
  targetsym a
  civecs
  grad
    root 1
  end

end
task tddft optimize
task tddft frequencies

# Calcul des propriétés électroniques
dplot
  vectors ascii
  limit 10
  filename orbitals
end
task dplot

# Calcul des forces d'oscillateur et autres propriétés
tddft
  nroots 4
  target_mult 1
  oscillator
end
task tddft energy

# Analyse des résultats
property
  nbo
  analyze
end
task property

# Fin du calcul
task dft
================================================================================


                                         
                                         


             Northwest Computational Chemistry Package (NWChem) 7.0.2
             --------------------------------------------------------


                    Environmental Molecular Sciences Laboratory
                       Pacific Northwest National Laboratory
                                Richland, WA 99352

                              Copyright (c) 1994-2020
                       Pacific Northwest National Laboratory
                            Battelle Memorial Institute

             NWChem is an open-source computational chemistry package
                        distributed under the terms of the
                      Educational Community License (ECL) 2.0
             A copy of the license is included with this distribution
                              in the LICENSE.TXT file

                                  ACKNOWLEDGMENT
                                  --------------

            This software and its documentation were developed at the
            EMSL at Pacific Northwest National Laboratory, a multiprogram
            national laboratory, operated for the U.S. Department of Energy
            by Battelle under Contract Number DE-AC05-76RL01830. Support
            for this work was provided by the Department of Energy Office
            of Biological and Environmental Research, Office of Basic
            Energy Sciences, and the Office of Advanced Scientific Computing.


           Job information
           ---------------

    hostname        = taamangtchu-Aspire-A515-45
    program         = nwchem
    date            = Sun Jun 30 08:48:21 2024

    compiled        = Sat_Apr_09_17:12:10_2022
    source          = /build/nwchem-f1f4gx/nwchem-7.0.2/build-openmpi
    nwchem branch   = 7.0.2
    nwchem revision = N/A
    ga revision     = 5.8.1
    use scalapack   = T
    input           = test.nw
    prefix          = tddftgrad_pyridine_opt.
    data base       = ./tddftgrad_pyridine_opt.db
    status          = startup
    nproc           =        1
    time left       =     -1s



           Memory information
           ------------------

    heap     =  536870910 doubles =   4096.0 Mbytes
    stack    =  536870907 doubles =   4096.0 Mbytes
    global   = 1073741824 doubles =   8192.0 Mbytes (distinct from heap & stack)
    total    = 2147483641 doubles =  16384.0 Mbytes
    verify   = yes
    hardfail = no 


           Directory information
           ---------------------

  0 permanent = .
  0 scratch   = .




                                NWChem Input Module
                                -------------------


            TDDFT/B3LYP/def2-TZVP/COSMO geometry optimization of Water
            ----------------------------------------------------------

 Scaling coordinates for geometry "geometry" by  1.889725989
 (inverse scale =  0.529177249)

 CS  symmetry detected

          ------
          auto-z
          ------
  no constraints, skipping    0.0000000000000000     
  no constraints, skipping    0.0000000000000000     


                             Geometry "geometry" -> ""
                             -------------------------

 Output coordinates in angstroms (scale by  1.889725989 to convert to a.u.)

  No.       Tag          Charge          X              Y              Z
 ---- ---------------- ---------- -------------- -------------- --------------
    1 O                    8.0000     0.11920704     0.00000000     0.00000000
    2 H                    1.0000    -0.47682817     0.00000000     0.75933475
    3 H                    1.0000    -0.47682817     0.00000000    -0.75933475

      Atomic Mass 
      ----------- 

      O                 15.994910
      H                  1.007825


 Effective nuclear repulsion energy (a.u.)       9.1194413826

            Nuclear Dipole moment (a.u.) 
            ----------------------------
        X                 Y               Z
 ---------------- ---------------- ----------------
     0.0000000000     0.0000000000     0.0000000000

      Symmetry information
      --------------------

 Group name             Cs        
 Group number              2
 Group order               2
 No. of unique centers     2

      Symmetry unique atoms

     1    2



                                Z-matrix (autoz)
                                -------- 

 Units are Angstrom for bonds and degrees for angles

      Type          Name      I     J     K     L     M      Value
      ----------- --------  ----- ----- ----- ----- ----- ----------
    1 Stretch                  1     2                       0.96532
    2 Stretch                  1     3                       0.96532
    3 Bend                     2     1     3               103.74015


            XYZ format geometry
            -------------------
     3
 geometry
 O                     0.11920704     0.00000000     0.00000000
 H                    -0.47682817     0.00000000     0.75933475
 H                    -0.47682817     0.00000000    -0.75933475

 ==============================================================================
                                internuclear distances
 ------------------------------------------------------------------------------
       center one      |      center two      | atomic units |  angstroms
 ------------------------------------------------------------------------------
    2 H                |   1 O                |     1.82419  |     0.96532
    3 H                |   1 O                |     1.82419  |     0.96532
 ------------------------------------------------------------------------------
                         number of included internuclear distances:          2
 ==============================================================================



 ==============================================================================
                                 internuclear angles
 ------------------------------------------------------------------------------
        center 1       |       center 2       |       center 3       |  degrees
 ------------------------------------------------------------------------------
    2 H                |   1 O                |   3 H                |   103.74
 ------------------------------------------------------------------------------
                            number of included internuclear angles:          1
 ==============================================================================





 Summary of "ao basis" -> "" (spherical)
 ------------------------------------------------------------------------------
       Tag                 Description            Shells   Functions and Types
 ---------------- ------------------------------  ------  ---------------------
 *                          def2-svp                  on all atoms 



  Deleted DRIVER restart files 



                           NWChem Geometry Optimization
                           ----------------------------




            TDDFT/B3LYP/def2-TZVP/COSMO geometry optimization of Water


  no constraints, skipping    0.0000000000000000     
 maximum gradient threshold         (gmax) =   0.000450
 rms gradient threshold             (grms) =   0.000300
 maximum cartesian step threshold   (xmax) =   0.001800
 rms cartesian step threshold       (xrms) =   0.001200
 fixed trust radius                (trust) =   0.300000
 maximum step size to saddle      (sadstp) =   0.100000
 energy precision                  (eprec) =   5.0D-06
 maximum number of steps          (nptopt) =  100
 initial hessian option           (inhess) =    0
 line search option               (linopt) =    1
 hessian update option            (modupd) =    1
 saddle point option              (modsad) =    0
 initial eigen-mode to follow     (moddir) =    0
 initial variable to follow       (vardir) =    0
 follow first negative mode     (firstneg) =    T
 apply conjugacy                    (opcg) =    F
 source of zmatrix                         =   autoz   


          -------------------
          Energy Minimization
          -------------------


 Names of Z-matrix variables 
    1              2              3         

 Variables with the same non-blank name are constrained to be equal


 Using diagonal initial Hessian 
 Scaling for Hessian diagonals: bonds = 1.00  angles = 0.25  torsions = 0.10

          --------
          Step   0
          --------


                         Geometry "geometry" -> "geometry"
                         ---------------------------------

 Output coordinates in angstroms (scale by  1.889725989 to convert to a.u.)

  No.       Tag          Charge          X              Y              Z
 ---- ---------------- ---------- -------------- -------------- --------------
    1 O                    8.0000     0.11920704     0.00000000     0.00000000
    2 H                    1.0000    -0.47682817     0.00000000     0.75933475
    3 H                    1.0000    -0.47682817     0.00000000    -0.75933475

      Atomic Mass 
      ----------- 

      O                 15.994910
      H                  1.007825


 Effective nuclear repulsion energy (a.u.)       9.1194413826

            Nuclear Dipole moment (a.u.) 
            ----------------------------
        X                 Y               Z
 ---------------- ---------------- ----------------
     0.0000000000     0.0000000000     0.0000000000

      Symmetry information
      --------------------

 Group name             Cs        
 Group number              2
 Group order               2
 No. of unique centers     2

      Symmetry unique atoms

     1    2


                                 NWChem DFT Module
                                 -----------------


            TDDFT/B3LYP/def2-TZVP/COSMO geometry optimization of Water


                      Basis "ao basis" -> "ao basis" (spherical)
                      -----
  O (Oxygen)
  ----------
            Exponent  Coefficients 
       -------------- ---------------------------------------------------------
  1 S  2.26617678E+03 -0.005343
  1 S  3.40870102E+02 -0.039890
  1 S  7.73631352E+01 -0.178539
  1 S  2.14796449E+01 -0.464277
  1 S  6.65894331E+00 -0.443097

  2 S  8.09759757E-01  1.000000

  3 S  2.55307722E-01  1.000000

  4 P  1.77215043E+01  0.043395
  4 P  3.86355054E+00  0.230941
  4 P  1.04809209E+00  0.513753

  5 P  2.76415444E-01  1.000000

  6 D  1.20000000E+00  1.000000

  H (Hydrogen)
  ------------
            Exponent  Coefficients 
       -------------- ---------------------------------------------------------
  1 S  1.30107010E+01  0.019682
  1 S  1.96225720E+00  0.137965
  1 S  4.44537960E-01  0.478319

  2 S  1.21949620E-01  1.000000

  3 P  8.00000000E-01  1.000000



 Summary of "ao basis" -> "ao basis" (spherical)
 ------------------------------------------------------------------------------
       Tag                 Description            Shells   Functions and Types
 ---------------- ------------------------------  ------  ---------------------
 O                          def2-svp                 6       14   3s2p1d
 H                          def2-svp                 3        5   2s1p




 Summary of "ao basis" -> "ao basis" (spherical)
 ------------------------------------------------------------------------------
       Tag                 Description            Shells   Functions and Types
 ---------------- ------------------------------  ------  ---------------------
 O                          def2-svp                 6       14   3s2p1d
 H                          def2-svp                 3        5   2s1p


      Symmetry analysis of basis
      --------------------------

        a'         15
        a"          9


 solvent parameters
 solvname_short: toluene 
 solvname_long:  toluene                            
 dielec:        2.3741
 dielecinf:     2.2383

          ---------------
          -cosmo- solvent
          ---------------
 Cosmo: York-Karplus, doi: 10.1021/jp992097l
 dielectric constant -eps-     =   2.37
 screen = (eps-1)/(eps    )    =   0.57879
 surface charge correction     = lagrangian
 -lineq- algorithm             =   0
 -bem- low  level              =   2
 -bem- from -octahedral-
 gaussian surface charge width =   0.98000
 degree of switching           =   1.00000
 switching function tolerance  =   0.00010
 atomic radii = 
 --------------
    1  8.000  1.720
    2  1.000  1.300
    3  1.000  1.300

 solvent accessible surface
 --------------------------

 ---------- ATOMIC COORDINATES (A.U.) ------------ VDWR(ANG.) --
     1    0.22526865    0.00000000    0.00000000     1.720
     2   -0.90107458    0.00000000    1.43493461     1.300
     3   -0.90107458    0.00000000   -1.43493461     1.300
 number of segments per atom =         32
 number of   points per atom =         32
 atom (   nspa,  nppa )
 ----------------------
    1 (     20,     0 )       0
    2 (     20,     0 )       0
    3 (     20,     0 )       0
 number of -cosmo- surface points =       60
 molecular surface =     40.787 angstrom**2
 molecular volume  =     20.919 angstrom**3
 G(cav/disp)       =      1.064 kcal/mol
 ...... end of -cosmo- initialization ......


  Caching 1-el integrals 

            General Information
            -------------------
          SCF calculation type: DFT
          Wavefunction type:  closed shell.
          No. of atoms     :     3
          No. of electrons :    10
           Alpha electrons :     5
            Beta electrons :     5
          Charge           :     0
          Spin multiplicity:     1
          Use of symmetry is: on ; symmetry adaption is: on 
          Maximum number of iterations: 500
          AO basis - number of functions:    24
                     number of shells:    12
          Convergence on energy requested:  1.00D-06
          Convergence on density requested:  1.00D-05
          Convergence on gradient requested:  5.00D-04

              XC Information
              --------------
                         B3LYP Method XC Potential
                     Hartree-Fock (Exact) Exchange  0.200          
                        Slater Exchange Functional  0.800 local    
                    Becke 1988 Exchange Functional  0.720 non-local
              Lee-Yang-Parr Correlation Functional  0.810          
                  VWN I RPA Correlation Functional  0.190 local    

             Grid Information
             ----------------
          Grid used for XC integration:  xfine     
          Radial quadrature: Mura-Knowles        
          Angular quadrature: Lebedev. 
          Tag              B.-S. Rad. Rad. Pts. Rad. Cut. Ang. Pts.
          ---              ---------- --------- --------- ---------
          O                   0.60      100           6.0      1454
          H                   0.35      100           7.0      1202
          Grid pruning is: on 
          Number of quadrature shells:   200
          Spatial weights used:  Erf1

          Convergence Information
          -----------------------
          Convergence aids based upon iterative change in 
          total energy or number of iterations. 
          Levelshifting, if invoked, occurs when the 
          HOMO/LUMO gap drops below (HL_TOL):  1.00D-02
          DIIS, if invoked, will attempt to extrapolate 
          using up to (NFOCK): 10 stored Fock matrices.

                    Damping( 0%)  Levelshifting(0.5)       DIIS
                  --------------- ------------------- ---------------
          dE  on:    start            ASAP                start   
          dE off:    2 iters        500 iters           500 iters 


      Screening Tolerance Information
      -------------------------------
          Density screening/tol_rho:  1.00D-10
          AO Gaussian exp screening on grid/accAOfunc:  14
          CD Gaussian exp screening on grid/accCDfunc:  20
          XC Gaussian exp screening on grid/accXCfunc:  20
          Schwarz screening/accCoul:  1.00D-08

      Dispersion Parameters
      ---------------------

           DFT-D3BJ Model   
          s6 scale factor  :        1.000000000000
          s8 scale factor  :        1.988900000000
          a1 parameter     :        0.398100000000
          a2 parameter     :        4.421100000000
              vdW contrib  :       -0.000573912586


      Superposition of Atomic Density Guess
      -------------------------------------

 Sum of atomic energies:         -75.68971188

      Non-variational initial energy
      ------------------------------

 Total energy =     -75.843876
 1-e energy   =    -121.542980
 2-e energy   =      36.579662
 HOMO         =      -0.472414
 LUMO         =       0.088297


      Symmetry analysis of molecular orbitals - initial
      -------------------------------------------------

  Numbering of irreducible representations: 

     1 a'          2 a"      

  Orbital symmetries:

     1 a'          2 a'          3 a"          4 a'          5 a'      
     6 a'          7 a"          8 a"          9 a'         10 a'      
    11 a'         12 a"         13 a'         14 a"         15 a'      

   Time after variat. SCF:      0.1
   Time prior to 1st pass:      0.1

 #quartets = 1.953D+03 #integrals = 1.485D+04 #direct =  0.0% #cached =100.0%


 Integral file          = ./tddftgrad_pyridine_opt.aoints.0
 Record size in doubles =  65536        No. of integs per rec  =  43688
 Max. records in memory =      2        Max. records in file   =  59798
 No. of bits per label  =      8        No. of bits per value  =     64


 Grid_pts file          = ./tddftgrad_pyridine_opt.gridpts.0
 Record size in doubles =  12289        No. of grid_pts per rec  =   3070
 Max. records in memory =    106        Max. recs in file   =    318900


           Memory utilization after 1st SCF pass: 
           Heap Space remaining (MW):      535.44           535435270
          Stack Space remaining (MW):      536.87           536870636

   convergence    iter        energy       DeltaE   RMS-Dens  Diis-err    time
 ---------------- ----- ----------------- --------- --------- ---------  ------
     COSMO gas phase
 d= 0,ls=0.0,diis     1    -76.3225611728 -8.54D+01  2.66D-02  3.43D-01     0.6
 d= 0,ls=0.0,diis     2    -76.3171250525  5.44D-03  1.41D-02  4.63D-01     0.8
 d= 0,ls=0.0,diis     3    -76.3581867827 -4.11D-02  1.66D-03  7.73D-03     0.9
 d= 0,ls=0.0,diis     4    -76.3588719569 -6.85D-04  1.34D-04  6.38D-05     1.0
 d= 0,ls=0.0,diis     5    -76.3588774635 -5.51D-06  1.02D-05  1.30D-07     1.1
 d= 0,ls=0.0,diis     6    -76.3588774773 -1.38D-08  1.18D-06  9.07D-10     1.2

           Memory utilization after 1st SCF pass: 
           Heap Space remaining (MW):      535.43           535434998
          Stack Space remaining (MW):      536.87           536870636

   convergence    iter        energy       DeltaE   RMS-Dens  Diis-err    time
 ---------------- ----- ----------------- --------- --------- ---------  ------
     COSMO solvation phase
 d= 0,ls=0.0,diis     1    -76.3643698249 -5.49D-03  2.42D-03  1.62D-03     1.4
 d= 0,ls=0.0,diis     2    -76.3646633244 -2.93D-04  6.91D-04  8.63D-04     1.5
 d= 0,ls=0.0,diis     3    -76.3647246293 -6.13D-05  2.84D-04  1.58D-04     1.6
 d= 0,ls=0.0,diis     4    -76.3647388986 -1.43D-05  2.69D-05  2.71D-06     1.7
 d= 0,ls=0.0,diis     5    -76.3647391326 -2.34D-07  4.04D-06  6.24D-09     1.9


         Total DFT energy =      -76.364739132553
      One electron energy =     -123.070247475440
           Coulomb energy =       46.904533247264
    Exchange-Corr. energy =       -9.355796236153
 Nuclear repulsion energy =        9.119441382552

    Dispersion correction =       -0.000573912586

             COSMO energy =        0.037903861811

 Numeric. integr. density =        9.999999955522

     Total iterative time =      1.7s


                                   COSMO solvation results
                                   -----------------------

                 gas phase energy =       -76.358877477288
                 sol phase energy =       -76.364739132553
 (electrostatic) solvation energy =         0.005861655265 (    3.68 kcal/mol)

                  Occupations of the irreducible representations
                  ----------------------------------------------

                     irrep           alpha         beta
                     --------     --------     --------
                     a'                4.0          4.0
                     a"                1.0          1.0


                       DFT Final Molecular Orbital Analysis
                       ------------------------------------

 Vector    1  Occ=2.000000D+00  E=-1.911864D+01  Symmetry=a'
              MO Center=  1.2D-01, -9.4D-14,  1.4D-18, r^2= 1.5D-02
   Bfn.  Coefficient  Atom+Function         Bfn.  Coefficient  Atom+Function  
  ----- ------------  ---------------      ----- ------------  ---------------
     1      0.988804  1 O  s                  2     -0.039537  1 O  s          

 Vector    2  Occ=2.000000D+00  E=-9.783992D-01  Symmetry=a'
              MO Center= -8.9D-02,  6.1D-11, -9.4D-18, r^2= 5.1D-01
   Bfn.  Coefficient  Atom+Function         Bfn.  Coefficient  Atom+Function  
  ----- ------------  ---------------      ----- ------------  ---------------
     2      0.552183  1 O  s                  1      0.277188  1 O  s          
     3      0.263980  1 O  s                 15      0.202227  2 H  s          
    20      0.202227  3 H  s                  4     -0.118274  1 O  px         
    19     -0.031412  2 H  pz                24      0.031412  3 H  pz         

 Vector    3  Occ=2.000000D+00  E=-5.107725D-01  Symmetry=a"
              MO Center= -1.1D-01, -2.0D-11,  2.1D-16, r^2= 7.8D-01
   Bfn.  Coefficient  Atom+Function         Bfn.  Coefficient  Atom+Function  
  ----- ------------  ---------------      ----- ------------  ---------------
     6      0.507416  1 O  pz                15      0.323364  2 H  s          
    20     -0.323364  3 H  s                  9      0.211074  1 O  pz         
    16      0.100150  2 H  s                 21     -0.100150  3 H  s          
    17      0.026598  2 H  px                22     -0.026598  3 H  px         

 Vector    4  Occ=2.000000D+00  E=-3.697457D-01  Symmetry=a'
              MO Center=  2.1D-01,  1.7D-12, -4.0D-16, r^2= 6.7D-01
   Bfn.  Coefficient  Atom+Function         Bfn.  Coefficient  Atom+Function  
  ----- ------------  ---------------      ----- ------------  ---------------
     4      0.548979  1 O  px                 3      0.358292  1 O  s          
     7      0.350725  1 O  px                 2      0.208993  1 O  s          
    15     -0.199075  2 H  s                 20     -0.199075  3 H  s          
     1      0.106700  1 O  s                 16     -0.057430  2 H  s          
    21     -0.057430  3 H  s          

 Vector    5  Occ=2.000000D+00  E=-2.940567D-01  Symmetry=a'
              MO Center=  9.7D-02, -8.0D-11, -1.1D-16, r^2= 5.9D-01
   Bfn.  Coefficient  Atom+Function         Bfn.  Coefficient  Atom+Function  
  ----- ------------  ---------------      ----- ------------  ---------------
     5      0.635633  1 O  py                 8      0.494292  1 O  py         
    18      0.028829  2 H  py                23      0.028829  3 H  py         

 Vector    6  Occ=0.000000D+00  E= 5.531070D-02  Symmetry=a'
              MO Center= -6.5D-01,  2.2D-11, -1.3D-14, r^2= 2.8D+00
   Bfn.  Coefficient  Atom+Function         Bfn.  Coefficient  Atom+Function  
  ----- ------------  ---------------      ----- ------------  ---------------
     3      0.957594  1 O  s                 16     -0.825059  2 H  s          
    21     -0.825059  3 H  s                  7     -0.341189  1 O  px         
     4     -0.235442  1 O  px                 2      0.179184  1 O  s          
    15     -0.116170  2 H  s                 20     -0.116170  3 H  s          
     1      0.105736  1 O  s          

 Vector    7  Occ=0.000000D+00  E= 1.356474D-01  Symmetry=a"
              MO Center= -5.7D-01, -8.3D-11,  1.3D-14, r^2= 3.2D+00
   Bfn.  Coefficient  Atom+Function         Bfn.  Coefficient  Atom+Function  
  ----- ------------  ---------------      ----- ------------  ---------------
    16      1.295185  2 H  s                 21     -1.295185  3 H  s          
     9     -0.601019  1 O  pz                 6     -0.369991  1 O  pz         
    15      0.108034  2 H  s                 20     -0.108034  3 H  s          

 Vector    8  Occ=0.000000D+00  E= 5.621222D-01  Symmetry=a"
              MO Center= -2.6D-01,  7.2D-11, -3.9D-15, r^2= 1.9D+00
   Bfn.  Coefficient  Atom+Function         Bfn.  Coefficient  Atom+Function  
  ----- ------------  ---------------      ----- ------------  ---------------
    15      0.968860  2 H  s                 20     -0.968860  3 H  s          
    16     -0.832951  2 H  s                 21      0.832951  3 H  s          
     9     -0.398307  1 O  pz                 6     -0.285658  1 O  pz         
    17     -0.105071  2 H  px                22      0.105071  3 H  px         
    13      0.101830  1 O  d  1              19      0.041654  2 H  pz         

 Vector    9  Occ=0.000000D+00  E= 6.267178D-01  Symmetry=a'
              MO Center= -5.0D-01, -4.8D-11,  4.8D-15, r^2= 1.7D+00
   Bfn.  Coefficient  Atom+Function         Bfn.  Coefficient  Atom+Function  
  ----- ------------  ---------------      ----- ------------  ---------------
    15      0.841024  2 H  s                 20      0.841024  3 H  s          
    16     -0.633701  2 H  s                 21     -0.633701  3 H  s          
     3      0.416285  1 O  s                  4      0.387748  1 O  px         
     2     -0.378085  1 O  s                 19      0.205689  2 H  pz         
    24     -0.205689  3 H  pz                 1     -0.103439  1 O  s          

 Vector   10  Occ=0.000000D+00  E= 9.098525D-01  Symmetry=a'
              MO Center=  4.0D-01,  2.5D-09, -5.7D-16, r^2= 1.1D+00
   Bfn.  Coefficient  Atom+Function         Bfn.  Coefficient  Atom+Function  
  ----- ------------  ---------------      ----- ------------  ---------------
     7      1.141237  1 O  px                 4     -0.776728  1 O  px         
     2     -0.642896  1 O  s                 15      0.392128  2 H  s          
    20      0.392128  3 H  s                  3      0.179718  1 O  s          
     1     -0.147968  1 O  s                 17      0.122308  2 H  px         
    22      0.122308  3 H  px                19     -0.031371  2 H  pz         

 Vector   11  Occ=0.000000D+00  E= 9.158724D-01  Symmetry=a'
              MO Center=  1.1D-01, -3.3D-09,  2.2D-16, r^2= 1.1D+00
   Bfn.  Coefficient  Atom+Function         Bfn.  Coefficient  Atom+Function  
  ----- ------------  ---------------      ----- ------------  ---------------
     8     -1.023439  1 O  py                 5      0.965860  1 O  py         

 Vector   12  Occ=0.000000D+00  E= 1.004840D+00  Symmetry=a"
              MO Center=  1.3D-01, -5.9D-11,  8.7D-17, r^2= 1.7D+00
   Bfn.  Coefficient  Atom+Function         Bfn.  Coefficient  Atom+Function  
  ----- ------------  ---------------      ----- ------------  ---------------
     9      1.741695  1 O  pz                16     -0.828222  2 H  s          
    21      0.828222  3 H  s                  6     -0.778466  1 O  pz         
    15     -0.339201  2 H  s                 20      0.339201  3 H  s          
    19      0.222160  2 H  pz                24      0.222160  3 H  pz         
    17     -0.125810  2 H  px                22      0.125810  3 H  px         

 Vector   13  Occ=0.000000D+00  E= 1.095997D+00  Symmetry=a'
              MO Center= -2.9D-01,  4.6D-10, -4.5D-16, r^2= 1.4D+00
   Bfn.  Coefficient  Atom+Function         Bfn.  Coefficient  Atom+Function  
  ----- ------------  ---------------      ----- ------------  ---------------
     3      2.783719  1 O  s                  2     -1.536685  1 O  s          
     7     -0.668631  1 O  px                15     -0.531626  2 H  s          
    20     -0.531626  3 H  s                 16     -0.519274  2 H  s          
    21     -0.519274  3 H  s                 17     -0.309432  2 H  px         
    22     -0.309432  3 H  px                 1     -0.243231  1 O  s          

 Vector   14  Occ=0.000000D+00  E= 1.351907D+00  Symmetry=a"
              MO Center= -4.2D-01,  5.7D-11, -8.5D-15, r^2= 9.9D-01
   Bfn.  Coefficient  Atom+Function         Bfn.  Coefficient  Atom+Function  
  ----- ------------  ---------------      ----- ------------  ---------------
    18      0.666766  2 H  py                23     -0.666766  3 H  py         
    11      0.175290  1 O  d -1       

 Vector   15  Occ=0.000000D+00  E= 1.405109D+00  Symmetry=a'
              MO Center= -1.8D-01,  1.2D-10, -1.3D-15, r^2= 1.2D+00
   Bfn.  Coefficient  Atom+Function         Bfn.  Coefficient  Atom+Function  
  ----- ------------  ---------------      ----- ------------  ---------------
     3      1.647362  1 O  s                  7     -1.168481  1 O  px         
    15     -0.723939  2 H  s                 20     -0.723939  3 H  s          
     2     -0.688605  1 O  s                 17      0.439456  2 H  px         
    19      0.440948  2 H  pz                22      0.439456  3 H  px         
    24     -0.440948  3 H  pz                14     -0.180954  1 O  d  2       

 Vector   16  Occ=0.000000D+00  E= 1.548912D+00  Symmetry=a'
              MO Center= -2.9D-01,  1.4D-10,  1.1D-14, r^2= 1.1D+00
   Bfn.  Coefficient  Atom+Function         Bfn.  Coefficient  Atom+Function  
  ----- ------------  ---------------      ----- ------------  ---------------
    18      0.733072  2 H  py                23      0.733072  3 H  py         
     8     -0.570682  1 O  py                10     -0.211000  1 O  d -2       

 Vector   17  Occ=0.000000D+00  E= 1.790884D+00  Symmetry=a"
              MO Center= -4.1D-01,  3.0D-11,  5.7D-15, r^2= 1.2D+00
   Bfn.  Coefficient  Atom+Function         Bfn.  Coefficient  Atom+Function  
  ----- ------------  ---------------      ----- ------------  ---------------
     9      0.813791  1 O  pz                17     -0.673335  2 H  px         
    22      0.673335  3 H  px                19     -0.457263  2 H  pz         
    24     -0.457263  3 H  pz                15     -0.339997  2 H  s          
    20      0.339997  3 H  s                 16     -0.091271  2 H  s          
    21      0.091271  3 H  s                 13     -0.027482  1 O  d  1       

 Vector   18  Occ=0.000000D+00  E= 2.210023D+00  Symmetry=a"
              MO Center= -3.7D-01,  1.1D-11, -6.4D-14, r^2= 1.1D+00
   Bfn.  Coefficient  Atom+Function         Bfn.  Coefficient  Atom+Function  
  ----- ------------  ---------------      ----- ------------  ---------------
     6      0.728790  1 O  pz                19      0.682829  2 H  pz         
    24      0.682829  3 H  pz                17     -0.526579  2 H  px         
    22      0.526579  3 H  px                16     -0.336440  2 H  s          
    21      0.336440  3 H  s                 15     -0.199117  2 H  s          
    20      0.199117  3 H  s                 13     -0.173458  1 O  d  1       

 Vector   19  Occ=0.000000D+00  E= 2.254603D+00  Symmetry=a'
              MO Center= -3.5D-01,  4.5D-11,  6.7D-14, r^2= 9.9D-01
   Bfn.  Coefficient  Atom+Function         Bfn.  Coefficient  Atom+Function  
  ----- ------------  ---------------      ----- ------------  ---------------
     2      0.735556  1 O  s                 19      0.712030  2 H  pz         
    24     -0.712030  3 H  pz                 3      0.691563  1 O  s          
     4     -0.582711  1 O  px                17     -0.508009  2 H  px         
    22     -0.508009  3 H  px                15     -0.401363  2 H  s          
    20     -0.401363  3 H  s                 14     -0.218042  1 O  d  2       

 Vector   20  Occ=0.000000D+00  E= 2.957758D+00  Symmetry=a'
              MO Center=  3.4D-02, -3.8D-13,  2.4D-14, r^2= 6.0D-01
   Bfn.  Coefficient  Atom+Function         Bfn.  Coefficient  Atom+Function  
  ----- ------------  ---------------      ----- ------------  ---------------
    10      1.028273  1 O  d -2              18      0.412662  2 H  py         
    23      0.412662  3 H  py                 8     -0.300666  1 O  py         

 Vector   21  Occ=0.000000D+00  E= 3.000389D+00  Symmetry=a"
              MO Center=  4.4D-02, -5.0D-12, -2.6D-14, r^2= 5.9D-01
   Bfn.  Coefficient  Atom+Function         Bfn.  Coefficient  Atom+Function  
  ----- ------------  ---------------      ----- ------------  ---------------
    11      1.052446  1 O  d -1              18     -0.382794  2 H  py         
    23      0.382794  3 H  py         

 Vector   22  Occ=0.000000D+00  E= 3.185174D+00  Symmetry=a'
              MO Center=  2.9D-02,  3.5D-12, -2.3D-15, r^2= 6.7D-01
   Bfn.  Coefficient  Atom+Function         Bfn.  Coefficient  Atom+Function  
  ----- ------------  ---------------      ----- ------------  ---------------
    14      0.820512  1 O  d  2              12     -0.707758  1 O  d  0       
     7     -0.523771  1 O  px                 3      0.488986  1 O  s          
    19      0.361928  2 H  pz                24     -0.361928  3 H  pz         
    17      0.330662  2 H  px                22      0.330662  3 H  px         
    15     -0.280924  2 H  s                 20     -0.280924  3 H  s          

 Vector   23  Occ=0.000000D+00  E= 3.490037D+00  Symmetry=a'
              MO Center= -3.6D-02,  7.2D-11,  1.3D-14, r^2= 7.9D-01
   Bfn.  Coefficient  Atom+Function         Bfn.  Coefficient  Atom+Function  
  ----- ------------  ---------------      ----- ------------  ---------------
     3      1.919039  1 O  s                 15     -1.144724  2 H  s          
    20     -1.144724  3 H  s                  7     -0.918028  1 O  px         
    12      0.901349  1 O  d  0              14      0.712547  1 O  d  2       
    19      0.622927  2 H  pz                24     -0.622927  3 H  pz         
    17     -0.493530  2 H  px                22     -0.493530  3 H  px         

 Vector   24  Occ=0.000000D+00  E= 3.818304D+00  Symmetry=a"
              MO Center=  7.1D-02, -1.9D-12, -1.8D-14, r^2= 8.0D-01
   Bfn.  Coefficient  Atom+Function         Bfn.  Coefficient  Atom+Function  
  ----- ------------  ---------------      ----- ------------  ---------------
    13      1.334905  1 O  d  1               9      1.110414  1 O  pz         
    15     -1.041524  2 H  s                 20      1.041524  3 H  s          
    19      0.619499  2 H  pz                24      0.619499  3 H  pz         
    17     -0.516173  2 H  px                22      0.516173  3 H  px         
     6      0.468352  1 O  pz                16     -0.273736  2 H  s          


 center of mass
 --------------
 x =   0.09921406 y =   0.00000000 z =   0.00000000

 moments of inertia (a.u.)
 ------------------
           4.150298610647           0.000000000000           0.000000000000
           0.000000000000           6.421267634361           0.000000000000
           0.000000000000           0.000000000000           2.270969023714

     Multipole analysis of the density
     ---------------------------------

     L   x y z        total         alpha         beta         nuclear
     -   - - -        -----         -----         ----         -------
     0   0 0 0     -0.000000     -5.000000     -5.000000     10.000000

     1   1 0 0     -0.848580     -0.424290     -0.424290      0.000000
     1   0 1 0      0.000000      0.000000      0.000000      0.000000
     1   0 0 1     -0.000000     -0.000000     -0.000000      0.000000

     2   2 0 0     -4.398447     -3.214143     -3.214143      2.029839
     2   1 1 0     -0.000000     -0.000000     -0.000000      0.000000
     2   1 0 1     -0.000000     -0.000000     -0.000000      0.000000
     2   0 2 0     -5.213535     -2.606768     -2.606768      0.000000
     2   0 1 1      0.000000      0.000000      0.000000      0.000000
     2   0 0 2     -3.143261     -3.630668     -3.630668      4.118075


 Parallel integral file used       1 records with       0 large values


            General Information
            -------------------
          SCF calculation type: DFT
          Wavefunction type:  closed shell.
          No. of atoms     :     3
          No. of electrons :    10
           Alpha electrons :     5
            Beta electrons :     5
          Charge           :     0
          Spin multiplicity:     1
          Use of symmetry is: on ; symmetry adaption is: on 
          Maximum number of iterations: 500
          AO basis - number of functions:    24
                     number of shells:    12
          Convergence on energy requested:  1.00D-06
          Convergence on density requested:  1.00D-05
          Convergence on gradient requested:  5.00D-04

              XC Information
              --------------
                         B3LYP Method XC Potential
                     Hartree-Fock (Exact) Exchange  0.200          
                        Slater Exchange Functional  0.800 local    
                    Becke 1988 Exchange Functional  0.720 non-local
              Lee-Yang-Parr Correlation Functional  0.810          
                  VWN I RPA Correlation Functional  0.190 local    

             Grid Information
             ----------------
          Grid used for XC integration:  xfine     
          Radial quadrature: Mura-Knowles        
          Angular quadrature: Lebedev. 
          Tag              B.-S. Rad. Rad. Pts. Rad. Cut. Ang. Pts.
          ---              ---------- --------- --------- ---------
          O                   0.60      100           6.0      1454
          H                   0.35      100           7.0      1202
          Grid pruning is: on 
          Number of quadrature shells:   200
          Spatial weights used:  Erf1

          Convergence Information
          -----------------------
          Convergence aids based upon iterative change in 
          total energy or number of iterations. 
          Levelshifting, if invoked, occurs when the 
          HOMO/LUMO gap drops below (HL_TOL):  1.00D-02
          DIIS, if invoked, will attempt to extrapolate 
          using up to (NFOCK): 10 stored Fock matrices.

                    Damping( 0%)  Levelshifting(0.5)       DIIS
                  --------------- ------------------- ---------------
          dE  on:    start            ASAP                start   
          dE off:    2 iters        500 iters           500 iters 


      Screening Tolerance Information
      -------------------------------
          Density screening/tol_rho:  1.00D-10
          AO Gaussian exp screening on grid/accAOfunc:  14
          CD Gaussian exp screening on grid/accCDfunc:  20
          XC Gaussian exp screening on grid/accXCfunc:  20
          Schwarz screening/accCoul:  1.00D-08



                            NWChem DFT Gradient Module
                            --------------------------


            TDDFT/B3LYP/def2-TZVP/COSMO geometry optimization of Water



  charge          =   0.00
  wavefunction    = closed shell

  Using symmetry


                         DFT ENERGY GRADIENTS

    atom               coordinates                        gradient
                 x          y          z           x          y          z
   1 O       0.225269   0.000000   0.000000   -0.004353  -0.000000   0.000000
   2 H      -0.901075   0.000000   1.434935    0.002176   0.000000  -0.000776
   3 H      -0.901075   0.000000  -1.434935    0.002176   0.000000   0.000776

                 ----------------------------------------
                 |  Time  |  1-e(secs)   |  2-e(secs)   |
                 ----------------------------------------
                 |  CPU   |       0.01   |       0.03   |
                 ----------------------------------------
                 |  WALL  |       0.01   |       0.02   |
                 ----------------------------------------
  no constraints, skipping    0.0000000000000000     

@ Step       Energy      Delta E   Gmax     Grms     Xrms     Xmax   Walltime
@ ---- ---------------- -------- -------- -------- -------- -------- --------
@    0     -76.36473913  0.0D+00  0.00195  0.00174  0.00000  0.00000      2.1
                                                                    



                                Z-matrix (autoz)
                                -------- 

 Units are Angstrom for bonds and degrees for angles

      Type          Name      I     J     K     L     M      Value     Gradient
      ----------- --------  ----- ----- ----- ----- ----- ---------- ----------
    1 Stretch                  1     2                       0.96532   -0.00195
    2 Stretch                  1     3                       0.96532   -0.00195
    3 Bend                     2     1     3               103.74015    0.00119

  no constraints, skipping    0.0000000000000000     
  no constraints, skipping    0.0000000000000000     
  no constraints, skipping    0.0000000000000000     
  no constraints, skipping    0.0000000000000000     

                                 NWChem DFT Module
                                 -----------------


            TDDFT/B3LYP/def2-TZVP/COSMO geometry optimization of Water




 Summary of "ao basis" -> "ao basis" (spherical)
 ------------------------------------------------------------------------------
       Tag                 Description            Shells   Functions and Types
 ---------------- ------------------------------  ------  ---------------------
 O                          def2-svp                 6       14   3s2p1d
 H                          def2-svp                 3        5   2s1p


      Symmetry analysis of basis
      --------------------------

        a'         15
        a"          9


 solvent parameters
 solvname_short: toluene 
 solvname_long:  toluene                            
 dielec:        2.3741
 dielecinf:     2.2383

          ---------------
          -cosmo- solvent
          ---------------
 Cosmo: York-Karplus, doi: 10.1021/jp992097l
 dielectric constant -eps-     =   2.37
 screen = (eps-1)/(eps    )    =   0.57879
 surface charge correction     = lagrangian
 -lineq- algorithm             =   0
 -bem- low  level              =   2
 -bem- from -octahedral-
 gaussian surface charge width =   0.98000
 degree of switching           =   1.00000
 switching function tolerance  =   0.00010
 atomic radii = 
 --------------
    1  8.000  1.720
    2  1.000  1.300
    3  1.000  1.300

 solvent accessible surface
 --------------------------

 ---------- ATOMIC COORDINATES (A.U.) ------------ VDWR(ANG.) --
     1    0.23371521    0.00000000    0.00000000     1.720
     2   -0.90529786    0.00000000    1.43191057     1.300
     3   -0.90529786    0.00000000   -1.43191057     1.300
 number of segments per atom =         32
 number of   points per atom =         32
 atom (   nspa,  nppa )
 ----------------------
    1 (     20,     0 )       0
    2 (     20,     0 )       0
    3 (     20,     0 )       0
 number of -cosmo- surface points =       60
 molecular surface =     40.823 angstrom**2
 molecular volume  =     20.938 angstrom**3
 G(cav/disp)       =      1.064 kcal/mol
 ...... end of -cosmo- initialization ......


  Caching 1-el integrals 

            General Information
            -------------------
          SCF calculation type: DFT
          Wavefunction type:  closed shell.
          No. of atoms     :     3
          No. of electrons :    10
           Alpha electrons :     5
            Beta electrons :     5
          Charge           :     0
          Spin multiplicity:     1
          Use of symmetry is: on ; symmetry adaption is: on 
          Maximum number of iterations: 500
          AO basis - number of functions:    24
                     number of shells:    12
          Convergence on energy requested:  1.00D-06
          Convergence on density requested:  1.00D-05
          Convergence on gradient requested:  5.00D-04

              XC Information
              --------------
                         B3LYP Method XC Potential
                     Hartree-Fock (Exact) Exchange  0.200          
                        Slater Exchange Functional  0.800 local    
                    Becke 1988 Exchange Functional  0.720 non-local
              Lee-Yang-Parr Correlation Functional  0.810          
                  VWN I RPA Correlation Functional  0.190 local    

             Grid Information
             ----------------
          Grid used for XC integration:  xfine     
          Radial quadrature: Mura-Knowles        
          Angular quadrature: Lebedev. 
          Tag              B.-S. Rad. Rad. Pts. Rad. Cut. Ang. Pts.
          ---              ---------- --------- --------- ---------
          O                   0.60      100           6.0      1454
          H                   0.35      100           7.0      1202
          Grid pruning is: on 
          Number of quadrature shells:   200
          Spatial weights used:  Erf1

          Convergence Information
          -----------------------
          Convergence aids based upon iterative change in 
          total energy or number of iterations. 
          Levelshifting, if invoked, occurs when the 
          HOMO/LUMO gap drops below (HL_TOL):  1.00D-02
          DIIS, if invoked, will attempt to extrapolate 
          using up to (NFOCK): 10 stored Fock matrices.

                    Damping( 0%)  Levelshifting(0.5)       DIIS
                  --------------- ------------------- ---------------
          dE  on:    start            ASAP                start   
          dE off:    2 iters        500 iters           500 iters 


      Screening Tolerance Information
      -------------------------------
          Density screening/tol_rho:  1.00D-10
          AO Gaussian exp screening on grid/accAOfunc:  14
          CD Gaussian exp screening on grid/accCDfunc:  20
          XC Gaussian exp screening on grid/accXCfunc:  20
          Schwarz screening/accCoul:  1.00D-08

      Dispersion Parameters
      ---------------------

           DFT-D3BJ Model   
          s6 scale factor  :        1.000000000000
          s8 scale factor  :        1.988900000000
          a1 parameter     :        0.398100000000
          a2 parameter     :        4.421100000000
              vdW contrib  :       -0.000573955302


 Loading old vectors from job with title :

TDDFT/B3LYP/def2-TZVP/COSMO geometry optimization of Water


      Symmetry analysis of molecular orbitals - initial
      -------------------------------------------------

  Numbering of irreducible representations: 

     1 a'          2 a"      

  Orbital symmetries:

     1 a'          2 a'          3 a"          4 a'          5 a'      
     6 a'          7 a"          8 a"          9 a'         10 a'      
    11 a'         12 a"         13 a'         14 a"         15 a'      

   Time after variat. SCF:      2.1
   Time prior to 1st pass:      2.1

 #quartets = 1.953D+03 #integrals = 1.485D+04 #direct =  0.0% #cached =100.0%


 Integral file          = ./tddftgrad_pyridine_opt.aoints.0
 Record size in doubles =  65536        No. of integs per rec  =  43688
 Max. records in memory =      2        Max. records in file   =  59839
 No. of bits per label  =      8        No. of bits per value  =     64


 Grid_pts file          = ./tddftgrad_pyridine_opt.gridpts.0
 Record size in doubles =  12289        No. of grid_pts per rec  =   3070
 Max. records in memory =    106        Max. recs in file   =    319123


           Memory utilization after 1st SCF pass: 
           Heap Space remaining (MW):      535.44           535435006
          Stack Space remaining (MW):      536.87           536870636

   convergence    iter        energy       DeltaE   RMS-Dens  Diis-err    time
 ---------------- ----- ----------------- --------- --------- ---------  ------
     COSMO gas phase
 d= 0,ls=0.0,diis     1    -76.3584576845 -8.55D+01  2.89D-03  1.87D-03     2.7
 d= 0,ls=0.0,diis     2    -76.3587610052 -3.03D-04  8.45D-04  1.37D-03     2.8
 d= 0,ls=0.0,diis     3    -76.3588716873 -1.11D-04  2.81D-04  1.51D-04     3.0
 d= 0,ls=0.0,diis     4    -76.3588851609 -1.35D-05  2.69D-05  2.80D-06     3.1
 d= 0,ls=0.0,diis     5    -76.3588854056 -2.45D-07  3.81D-06  6.52D-09     3.2

           Memory utilization after 1st SCF pass: 
           Heap Space remaining (MW):      535.44           535435006
          Stack Space remaining (MW):      536.87           536870636

   convergence    iter        energy       DeltaE   RMS-Dens  Diis-err    time
 ---------------- ----- ----------------- --------- --------- ---------  ------
     COSMO solvation phase
 d= 0,ls=0.0,diis     1    -76.3643897850 -5.50D-03  2.45D-03  1.64D-03     3.3
 d= 0,ls=0.0,diis     2    -76.3646855157 -2.96D-04  7.03D-04  9.00D-04     3.5
 d= 0,ls=0.0,diis     3    -76.3647501770 -6.47D-05  2.85D-04  1.58D-04     3.6
 d= 0,ls=0.0,diis     4    -76.3647645139 -1.43D-05  2.73D-05  2.81D-06     3.7
 d= 0,ls=0.0,diis     5    -76.3647647560 -2.42D-07  4.04D-06  6.46D-09     3.8


         Total DFT energy =      -76.364764755969
      One electron energy =     -123.023355342049
           Coulomb energy =       46.880163700469
    Exchange-Corr. energy =       -9.353089245458
 Nuclear repulsion energy =        9.093895730004

    Dispersion correction =       -0.000573955302

             COSMO energy =        0.038194356366

 Numeric. integr. density =        9.999999954554

     Total iterative time =      1.7s


                                   COSMO solvation results
                                   -----------------------

                 gas phase energy =       -76.358885405631
                 sol phase energy =       -76.364764755969
 (electrostatic) solvation energy =         0.005879350338 (    3.69 kcal/mol)

                  Occupations of the irreducible representations
                  ----------------------------------------------

                     irrep           alpha         beta
                     --------     --------     --------
                     a'                4.0          4.0
                     a"                1.0          1.0


                       DFT Final Molecular Orbital Analysis
                       ------------------------------------

 Vector    1  Occ=2.000000D+00  E=-1.911936D+01  Symmetry=a'
              MO Center=  1.2D-01, -9.3D-14,  5.2D-19, r^2= 1.5D-02
   Bfn.  Coefficient  Atom+Function         Bfn.  Coefficient  Atom+Function  
  ----- ------------  ---------------      ----- ------------  ---------------
     1      0.988813  1 O  s                  2     -0.039467  1 O  s          

 Vector    2  Occ=2.000000D+00  E=-9.777634D-01  Symmetry=a'
              MO Center= -8.5D-02,  6.0D-11, -7.0D-16, r^2= 5.1D-01
   Bfn.  Coefficient  Atom+Function         Bfn.  Coefficient  Atom+Function  
  ----- ------------  ---------------      ----- ------------  ---------------
     2      0.552536  1 O  s                  1      0.277156  1 O  s          
     3      0.265050  1 O  s                 15      0.201646  2 H  s          
    20      0.201646  3 H  s                  4     -0.118590  1 O  px         
    19     -0.031202  2 H  pz                24      0.031202  3 H  pz         

 Vector    3  Occ=2.000000D+00  E=-5.084227D-01  Symmetry=a"
              MO Center= -1.1D-01, -2.2D-11,  7.4D-16, r^2= 7.8D-01
   Bfn.  Coefficient  Atom+Function         Bfn.  Coefficient  Atom+Function  
  ----- ------------  ---------------      ----- ------------  ---------------
     6      0.507520  1 O  pz                15      0.322348  2 H  s          
    20     -0.322348  3 H  s                  9      0.213164  1 O  pz         
    16      0.101304  2 H  s                 21     -0.101304  3 H  s          
    17      0.026665  2 H  px                22     -0.026665  3 H  px         

 Vector    4  Occ=2.000000D+00  E=-3.709492D-01  Symmetry=a'
              MO Center=  2.1D-01, -9.9D-13, -2.8D-16, r^2= 6.7D-01
   Bfn.  Coefficient  Atom+Function         Bfn.  Coefficient  Atom+Function  
  ----- ------------  ---------------      ----- ------------  ---------------
     4      0.547731  1 O  px                 3      0.359792  1 O  s          
     7      0.348682  1 O  px                 2      0.209998  1 O  s          
    15     -0.200566  2 H  s                 20     -0.200566  3 H  s          
     1      0.107268  1 O  s                 16     -0.058087  2 H  s          
    21     -0.058087  3 H  s          

 Vector    5  Occ=2.000000D+00  E=-2.940507D-01  Symmetry=a'
              MO Center=  1.0D-01, -8.3D-11, -1.9D-16, r^2= 5.9D-01
   Bfn.  Coefficient  Atom+Function         Bfn.  Coefficient  Atom+Function  
  ----- ------------  ---------------      ----- ------------  ---------------
     5      0.635786  1 O  py                 8      0.494272  1 O  py         
    18      0.028802  2 H  py                23      0.028802  3 H  py         

 Vector    6  Occ=0.000000D+00  E= 5.459185D-02  Symmetry=a'
              MO Center= -6.6D-01,  2.1D-11, -1.2D-14, r^2= 2.8D+00
   Bfn.  Coefficient  Atom+Function         Bfn.  Coefficient  Atom+Function  
  ----- ------------  ---------------      ----- ------------  ---------------
     3      0.952160  1 O  s                 16     -0.822360  2 H  s          
    21     -0.822360  3 H  s                  7     -0.343879  1 O  px         
     4     -0.237940  1 O  px                 2      0.178821  1 O  s          
    15     -0.116360  2 H  s                 20     -0.116360  3 H  s          
     1      0.105418  1 O  s          

 Vector    7  Occ=0.000000D+00  E= 1.348670D-01  Symmetry=a"
              MO Center= -5.7D-01, -8.9D-11,  1.2D-14, r^2= 3.2D+00
   Bfn.  Coefficient  Atom+Function         Bfn.  Coefficient  Atom+Function  
  ----- ------------  ---------------      ----- ------------  ---------------
    16      1.291666  2 H  s                 21     -1.291666  3 H  s          
     9     -0.600617  1 O  pz                 6     -0.371495  1 O  pz         
    15      0.110964  2 H  s                 20     -0.110964  3 H  s          

 Vector    8  Occ=0.000000D+00  E= 5.582043D-01  Symmetry=a"
              MO Center= -2.6D-01,  7.6D-11, -9.6D-15, r^2= 1.9D+00
   Bfn.  Coefficient  Atom+Function         Bfn.  Coefficient  Atom+Function  
  ----- ------------  ---------------      ----- ------------  ---------------
    15      0.967712  2 H  s                 20     -0.967712  3 H  s          
    16     -0.841885  2 H  s                 21      0.841885  3 H  s          
     9     -0.392267  1 O  pz                 6     -0.282668  1 O  pz         
    17     -0.102813  2 H  px                22      0.102813  3 H  px         
    13      0.101310  1 O  d  1              19      0.040924  2 H  pz         

 Vector    9  Occ=0.000000D+00  E= 6.266413D-01  Symmetry=a'
              MO Center= -5.0D-01,  4.5D-12,  1.0D-14, r^2= 1.7D+00
   Bfn.  Coefficient  Atom+Function         Bfn.  Coefficient  Atom+Function  
  ----- ------------  ---------------      ----- ------------  ---------------
    15      0.837629  2 H  s                 20      0.837629  3 H  s          
    16     -0.637703  2 H  s                 21     -0.637703  3 H  s          
     3      0.431545  1 O  s                  4      0.393223  1 O  px         
     2     -0.382416  1 O  s                 19      0.204481  2 H  pz         
    24     -0.204481  3 H  pz                 1     -0.103505  1 O  s          

 Vector   10  Occ=0.000000D+00  E= 9.101507D-01  Symmetry=a'
              MO Center=  4.1D-01,  2.8D-09, -4.2D-16, r^2= 1.1D+00
   Bfn.  Coefficient  Atom+Function         Bfn.  Coefficient  Atom+Function  
  ----- ------------  ---------------      ----- ------------  ---------------
     7      1.133936  1 O  px                 4     -0.772189  1 O  px         
     2     -0.661415  1 O  s                 15      0.390520  2 H  s          
    20      0.390520  3 H  s                  3      0.211691  1 O  s          
     1     -0.151338  1 O  s                 17      0.122082  2 H  px         
    22      0.122082  3 H  px                16     -0.037179  2 H  s          

 Vector   11  Occ=0.000000D+00  E= 9.156739D-01  Symmetry=a'
              MO Center=  1.1D-01, -3.6D-09,  1.6D-16, r^2= 1.1D+00
   Bfn.  Coefficient  Atom+Function         Bfn.  Coefficient  Atom+Function  
  ----- ------------  ---------------      ----- ------------  ---------------
     8     -1.021999  1 O  py                 5      0.965774  1 O  py         

 Vector   12  Occ=0.000000D+00  E= 1.005181D+00  Symmetry=a"
              MO Center=  1.4D-01, -5.2D-11, -2.6D-16, r^2= 1.7D+00
   Bfn.  Coefficient  Atom+Function         Bfn.  Coefficient  Atom+Function  
  ----- ------------  ---------------      ----- ------------  ---------------
     9      1.734655  1 O  pz                16     -0.825856  2 H  s          
    21      0.825856  3 H  s                  6     -0.781941  1 O  pz         
    15     -0.333897  2 H  s                 20      0.333897  3 H  s          
    19      0.219329  2 H  pz                24      0.219329  3 H  pz         
    17     -0.127725  2 H  px                22      0.127725  3 H  px         

 Vector   13  Occ=0.000000D+00  E= 1.097598D+00  Symmetry=a'
              MO Center= -2.9D-01,  4.0D-10, -1.4D-15, r^2= 1.4D+00
   Bfn.  Coefficient  Atom+Function         Bfn.  Coefficient  Atom+Function  
  ----- ------------  ---------------      ----- ------------  ---------------
     3      2.762289  1 O  s                  2     -1.525918  1 O  s          
     7     -0.677345  1 O  px                15     -0.535627  2 H  s          
    20     -0.535627  3 H  s                 16     -0.511447  2 H  s          
    21     -0.511447  3 H  s                 17     -0.313223  2 H  px         
    22     -0.313223  3 H  px                 1     -0.240943  1 O  s          

 Vector   14  Occ=0.000000D+00  E= 1.353717D+00  Symmetry=a"
              MO Center= -4.2D-01,  5.2D-11, -5.1D-15, r^2= 9.9D-01
   Bfn.  Coefficient  Atom+Function         Bfn.  Coefficient  Atom+Function  
  ----- ------------  ---------------      ----- ------------  ---------------
    18      0.667235  2 H  py                23     -0.667235  3 H  py         
    11      0.175791  1 O  d -1       

 Vector   15  Occ=0.000000D+00  E= 1.396239D+00  Symmetry=a'
              MO Center= -1.8D-01,  1.2D-10, -9.6D-16, r^2= 1.2D+00
   Bfn.  Coefficient  Atom+Function         Bfn.  Coefficient  Atom+Function  
  ----- ------------  ---------------      ----- ------------  ---------------
     3      1.666409  1 O  s                  7     -1.180309  1 O  px         
    15     -0.730877  2 H  s                 20     -0.730877  3 H  s          
     2     -0.695869  1 O  s                 19      0.446153  2 H  pz         
    24     -0.446153  3 H  pz                17      0.428848  2 H  px         
    22      0.428848  3 H  px                16     -0.182561  2 H  s          

 Vector   16  Occ=0.000000D+00  E= 1.544615D+00  Symmetry=a'
              MO Center= -2.9D-01,  1.4D-10,  7.5D-15, r^2= 1.1D+00
   Bfn.  Coefficient  Atom+Function         Bfn.  Coefficient  Atom+Function  
  ----- ------------  ---------------      ----- ------------  ---------------
    18      0.731761  2 H  py                23      0.731761  3 H  py         
     8     -0.571095  1 O  py                10     -0.211101  1 O  d -2       

 Vector   17  Occ=0.000000D+00  E= 1.792542D+00  Symmetry=a"
              MO Center= -4.2D-01,  2.9D-11,  3.2D-15, r^2= 1.2D+00
   Bfn.  Coefficient  Atom+Function         Bfn.  Coefficient  Atom+Function  
  ----- ------------  ---------------      ----- ------------  ---------------
     9      0.801352  1 O  pz                17     -0.676774  2 H  px         
    22      0.676774  3 H  px                19     -0.454255  2 H  pz         
    24     -0.454255  3 H  pz                15     -0.332585  2 H  s          
    20      0.332585  3 H  s                 16     -0.090985  2 H  s          
    21      0.090985  3 H  s                 13     -0.028967  1 O  d  1       

 Vector   18  Occ=0.000000D+00  E= 2.202149D+00  Symmetry=a"
              MO Center= -3.7D-01,  1.3D-11, -5.5D-14, r^2= 1.1D+00
   Bfn.  Coefficient  Atom+Function         Bfn.  Coefficient  Atom+Function  
  ----- ------------  ---------------      ----- ------------  ---------------
     6      0.721241  1 O  pz                19      0.685506  2 H  pz         
    24      0.685506  3 H  pz                17     -0.519390  2 H  px         
    22      0.519390  3 H  px                16     -0.337403  2 H  s          
    21      0.337403  3 H  s                 15     -0.190724  2 H  s          
    20      0.190724  3 H  s                 13     -0.171949  1 O  d  1       

 Vector   19  Occ=0.000000D+00  E= 2.249337D+00  Symmetry=a'
              MO Center= -3.5D-01,  5.0D-11,  5.7D-14, r^2= 9.9D-01
   Bfn.  Coefficient  Atom+Function         Bfn.  Coefficient  Atom+Function  
  ----- ------------  ---------------      ----- ------------  ---------------
     2      0.724838  1 O  s                 19      0.705681  2 H  pz         
    24     -0.705681  3 H  pz                 3      0.693926  1 O  s          
     4     -0.584166  1 O  px                17     -0.514933  2 H  px         
    22     -0.514933  3 H  px                15     -0.397307  2 H  s          
    20     -0.397307  3 H  s                  7     -0.215611  1 O  px         

 Vector   20  Occ=0.000000D+00  E= 2.958818D+00  Symmetry=a'
              MO Center=  3.8D-02, -2.7D-12,  2.9D-14, r^2= 6.0D-01
   Bfn.  Coefficient  Atom+Function         Bfn.  Coefficient  Atom+Function  
  ----- ------------  ---------------      ----- ------------  ---------------
    10      1.028240  1 O  d -2              18      0.411996  2 H  py         
    23      0.411996  3 H  py                 8     -0.299868  1 O  py         

 Vector   21  Occ=0.000000D+00  E= 2.994580D+00  Symmetry=a"
              MO Center=  4.8D-02, -4.8D-12, -3.2D-14, r^2= 5.9D-01
   Bfn.  Coefficient  Atom+Function         Bfn.  Coefficient  Atom+Function  
  ----- ------------  ---------------      ----- ------------  ---------------
    11      1.050672  1 O  d -1              18     -0.379968  2 H  py         
    23      0.379968  3 H  py         

 Vector   22  Occ=0.000000D+00  E= 3.183291D+00  Symmetry=a'
              MO Center=  3.3D-02,  3.1D-12,  2.8D-16, r^2= 6.7D-01
   Bfn.  Coefficient  Atom+Function         Bfn.  Coefficient  Atom+Function  
  ----- ------------  ---------------      ----- ------------  ---------------
    14     -0.798414  1 O  d  2              12      0.734044  1 O  d  0       
     7      0.501241  1 O  px                 3     -0.443308  1 O  s          
    19     -0.346471  2 H  pz                24      0.346471  3 H  pz         
    17     -0.337484  2 H  px                22     -0.337484  3 H  px         
    15      0.255441  2 H  s                 20      0.255441  3 H  s          

 Vector   23  Occ=0.000000D+00  E= 3.481917D+00  Symmetry=a'
              MO Center= -3.1D-02,  7.5D-11,  1.5D-14, r^2= 7.9D-01
   Bfn.  Coefficient  Atom+Function         Bfn.  Coefficient  Atom+Function  
  ----- ------------  ---------------      ----- ------------  ---------------
     3      1.924203  1 O  s                 15     -1.142779  2 H  s          
    20     -1.142779  3 H  s                  7     -0.936225  1 O  px         
    12      0.872791  1 O  d  0              14      0.741130  1 O  d  2       
    19      0.624098  2 H  pz                24     -0.624098  3 H  pz         
    17     -0.486175  2 H  px                22     -0.486175  3 H  px         

 Vector   24  Occ=0.000000D+00  E= 3.819445D+00  Symmetry=a"
              MO Center=  7.3D-02, -1.9D-12, -1.9D-14, r^2= 8.0D-01
   Bfn.  Coefficient  Atom+Function         Bfn.  Coefficient  Atom+Function  
  ----- ------------  ---------------      ----- ------------  ---------------
    13      1.334770  1 O  d  1               9      1.100639  1 O  pz         
    15     -1.030938  2 H  s                 20      1.030938  3 H  s          
    19      0.614083  2 H  pz                24      0.614083  3 H  pz         
    17     -0.521771  2 H  px                22      0.521771  3 H  px         
     6      0.460701  1 O  pz                16     -0.273234  2 H  s          


 center of mass
 --------------
 x =   0.10624268 y =   0.00000000 z =   0.00000000

 moments of inertia (a.u.)
 ------------------
           4.132823992444           0.000000000000           0.000000000000
           0.000000000000           6.455171073465           0.000000000000
           0.000000000000           0.000000000000           2.322347081021

     Multipole analysis of the density
     ---------------------------------

     L   x y z        total         alpha         beta         nuclear
     -   - - -        -----         -----         ----         -------
     0   0 0 0     -0.000000     -5.000000     -5.000000     10.000000

     1   1 0 0     -0.853896     -0.456511     -0.456511      0.059126
     1   0 1 0      0.000000      0.000000      0.000000      0.000000
     1   0 0 1      0.000000      0.000000      0.000000      0.000000

     2   2 0 0     -4.395432     -3.235771     -3.235771      2.076111
     2   1 1 0     -0.000000     -0.000000     -0.000000      0.000000
     2   1 0 1     -0.000000     -0.000000     -0.000000      0.000000
     2   0 2 0     -5.217812     -2.608906     -2.608906      0.000000
     2   0 1 1     -0.000000     -0.000000     -0.000000      0.000000
     2   0 0 2     -3.162334     -3.631535     -3.631535      4.100736


 Parallel integral file used       1 records with       0 large values

 Line search: 
     step= 1.00 grad=-5.1D-05 hess= 2.5D-05 energy=    -76.364765 mode=accept  
 new step= 1.00                   predicted energy=    -76.364765
  no constraints, skipping    0.0000000000000000     
  no constraints, skipping    0.0000000000000000     
  no constraints, skipping    0.0000000000000000     
  no constraints, skipping    0.0000000000000000     

          --------
          Step   1
          --------


                         Geometry "geometry" -> "geometry"
                         ---------------------------------

 Output coordinates in angstroms (scale by  1.889725989 to convert to a.u.)

  No.       Tag          Charge          X              Y              Z
 ---- ---------------- ---------- -------------- -------------- --------------
    1 O                    8.0000     0.12367677     0.00000000     0.00000000
    2 H                    1.0000    -0.47906303     0.00000000     0.75773449
    3 H                    1.0000    -0.47906303     0.00000000    -0.75773449

      Atomic Mass 
      ----------- 

      O                 15.994910
      H                  1.007825


 Effective nuclear repulsion energy (a.u.)       9.0938957300

            Nuclear Dipole moment (a.u.) 
            ----------------------------
        X                 Y               Z
 ---------------- ---------------- ----------------
     0.0591259639     0.0000000000     0.0000000000

      Symmetry information
      --------------------

 Group name             Cs        
 Group number              2
 Group order               2
 No. of unique centers     2

      Symmetry unique atoms

     1    2


                                 NWChem DFT Module
                                 -----------------


            TDDFT/B3LYP/def2-TZVP/COSMO geometry optimization of Water




 Summary of "ao basis" -> "ao basis" (spherical)
 ------------------------------------------------------------------------------
       Tag                 Description            Shells   Functions and Types
 ---------------- ------------------------------  ------  ---------------------
 O                          def2-svp                 6       14   3s2p1d
 H                          def2-svp                 3        5   2s1p


      Symmetry analysis of basis
      --------------------------

        a'         15
        a"          9


 solvent parameters
 solvname_short: toluene 
 solvname_long:  toluene                            
 dielec:        2.3741
 dielecinf:     2.2383

          ---------------
          -cosmo- solvent
          ---------------
 Cosmo: York-Karplus, doi: 10.1021/jp992097l
 dielectric constant -eps-     =   2.37
 screen = (eps-1)/(eps    )    =   0.57879
 surface charge correction     = lagrangian
 -lineq- algorithm             =   0
 -bem- low  level              =   2
 -bem- from -octahedral-
 gaussian surface charge width =   0.98000
 degree of switching           =   1.00000
 switching function tolerance  =   0.00010
 atomic radii = 
 --------------
    1  8.000  1.720
    2  1.000  1.300
    3  1.000  1.300

 solvent accessible surface
 --------------------------

 ---------- ATOMIC COORDINATES (A.U.) ------------ VDWR(ANG.) --
     1    0.23371521    0.00000000    0.00000000     1.720
     2   -0.90529786    0.00000000    1.43191057     1.300
     3   -0.90529786    0.00000000   -1.43191057     1.300
 number of segments per atom =         32
 number of   points per atom =         32
 atom (   nspa,  nppa )
 ----------------------
    1 (     20,     0 )       0
    2 (     20,     0 )       0
    3 (     20,     0 )       0
 number of -cosmo- surface points =       60
 molecular surface =     40.823 angstrom**2
 molecular volume  =     20.938 angstrom**3
 G(cav/disp)       =      1.064 kcal/mol
 ...... end of -cosmo- initialization ......



  The DFT is already converged 

         Total DFT energy =    -76.364764755969


            General Information
            -------------------
          SCF calculation type: DFT
          Wavefunction type:  closed shell.
          No. of atoms     :     3
          No. of electrons :    10
           Alpha electrons :     5
            Beta electrons :     5
          Charge           :     0
          Spin multiplicity:     1
          Use of symmetry is: on ; symmetry adaption is: on 
          Maximum number of iterations: 500
          AO basis - number of functions:    24
                     number of shells:    12
          Convergence on energy requested:  1.00D-06
          Convergence on density requested:  1.00D-05
          Convergence on gradient requested:  5.00D-04

              XC Information
              --------------
                         B3LYP Method XC Potential
                     Hartree-Fock (Exact) Exchange  0.200          
                        Slater Exchange Functional  0.800 local    
                    Becke 1988 Exchange Functional  0.720 non-local
              Lee-Yang-Parr Correlation Functional  0.810          
                  VWN I RPA Correlation Functional  0.190 local    

             Grid Information
             ----------------
          Grid used for XC integration:  xfine     
          Radial quadrature: Mura-Knowles        
          Angular quadrature: Lebedev. 
          Tag              B.-S. Rad. Rad. Pts. Rad. Cut. Ang. Pts.
          ---              ---------- --------- --------- ---------
          O                   0.60      100           6.0      1454
          H                   0.35      100           7.0      1202
          Grid pruning is: on 
          Number of quadrature shells:   200
          Spatial weights used:  Erf1

          Convergence Information
          -----------------------
          Convergence aids based upon iterative change in 
          total energy or number of iterations. 
          Levelshifting, if invoked, occurs when the 
          HOMO/LUMO gap drops below (HL_TOL):  1.00D-02
          DIIS, if invoked, will attempt to extrapolate 
          using up to (NFOCK): 10 stored Fock matrices.

                    Damping( 0%)  Levelshifting(0.5)       DIIS
                  --------------- ------------------- ---------------
          dE  on:    start            ASAP                start   
          dE off:    2 iters        500 iters           500 iters 


      Screening Tolerance Information
      -------------------------------
          Density screening/tol_rho:  1.00D-10
          AO Gaussian exp screening on grid/accAOfunc:  14
          CD Gaussian exp screening on grid/accCDfunc:  20
          XC Gaussian exp screening on grid/accXCfunc:  20
          Schwarz screening/accCoul:  1.00D-08



                            NWChem DFT Gradient Module
                            --------------------------


            TDDFT/B3LYP/def2-TZVP/COSMO geometry optimization of Water



  charge          =   0.00
  wavefunction    = closed shell

  Using symmetry


                         DFT ENERGY GRADIENTS

    atom               coordinates                        gradient
                 x          y          z           x          y          z
   1 O       0.233715   0.000000   0.000000    0.000232  -0.000000   0.000000
   2 H      -0.905298   0.000000   1.431911   -0.000116   0.000000   0.000608
   3 H      -0.905298   0.000000  -1.431911   -0.000116   0.000000  -0.000608

                 ----------------------------------------
                 |  Time  |  1-e(secs)   |  2-e(secs)   |
                 ----------------------------------------
                 |  CPU   |       0.01   |       0.05   |
                 ----------------------------------------
                 |  WALL  |       0.01   |       0.03   |
                 ----------------------------------------
  no constraints, skipping    0.0000000000000000     

  Step       Energy      Delta E   Gmax     Grms     Xrms     Xmax   Walltime
  ---- ---------------- -------- -------- -------- -------- -------- --------
@    1     -76.36476476 -2.6D-05  0.00055  0.00048  0.00374  0.00845      4.1
                                                                    



                                Z-matrix (autoz)
                                -------- 

 Units are Angstrom for bonds and degrees for angles

      Type          Name      I     J     K     L     M      Value     Gradient
      ----------- --------  ----- ----- ----- ----- ----- ---------- ----------
    1 Stretch                  1     2                       0.96822    0.00055
    2 Stretch                  1     3                       0.96822    0.00055
    3 Bend                     2     1     3               102.99902    0.00028

  no constraints, skipping    0.0000000000000000     
  no constraints, skipping    0.0000000000000000     
  no constraints, skipping    0.0000000000000000     
  no constraints, skipping    0.0000000000000000     

                                 NWChem DFT Module
                                 -----------------


            TDDFT/B3LYP/def2-TZVP/COSMO geometry optimization of Water




 Summary of "ao basis" -> "ao basis" (spherical)
 ------------------------------------------------------------------------------
       Tag                 Description            Shells   Functions and Types
 ---------------- ------------------------------  ------  ---------------------
 O                          def2-svp                 6       14   3s2p1d
 H                          def2-svp                 3        5   2s1p


      Symmetry analysis of basis
      --------------------------

        a'         15
        a"          9


 solvent parameters
 solvname_short: toluene 
 solvname_long:  toluene                            
 dielec:        2.3741
 dielecinf:     2.2383

          ---------------
          -cosmo- solvent
          ---------------
 Cosmo: York-Karplus, doi: 10.1021/jp992097l
 dielectric constant -eps-     =   2.37
 screen = (eps-1)/(eps    )    =   0.57879
 surface charge correction     = lagrangian
 -lineq- algorithm             =   0
 -bem- low  level              =   2
 -bem- from -octahedral-
 gaussian surface charge width =   0.98000
 degree of switching           =   1.00000
 switching function tolerance  =   0.00010
 atomic radii = 
 --------------
    1  8.000  1.720
    2  1.000  1.300
    3  1.000  1.300

 solvent accessible surface
 --------------------------

 ---------- ATOMIC COORDINATES (A.U.) ------------ VDWR(ANG.) --
     1    0.23509889    0.00000000    0.00000000     1.720
     2   -0.90598971    0.00000000    1.42872583     1.300
     3   -0.90598971    0.00000000   -1.42872583     1.300
 number of segments per atom =         32
 number of   points per atom =         32
 atom (   nspa,  nppa )
 ----------------------
    1 (     20,     0 )       0
    2 (     20,     0 )       0
    3 (     20,     0 )       0
 number of -cosmo- surface points =       60
 molecular surface =     40.804 angstrom**2
 molecular volume  =     20.931 angstrom**3
 G(cav/disp)       =      1.064 kcal/mol
 ...... end of -cosmo- initialization ......


  Caching 1-el integrals 

            General Information
            -------------------
          SCF calculation type: DFT
          Wavefunction type:  closed shell.
          No. of atoms     :     3
          No. of electrons :    10
           Alpha electrons :     5
            Beta electrons :     5
          Charge           :     0
          Spin multiplicity:     1
          Use of symmetry is: on ; symmetry adaption is: on 
          Maximum number of iterations: 500
          AO basis - number of functions:    24
                     number of shells:    12
          Convergence on energy requested:  1.00D-06
[...]

 Vector    9  Occ=0.000000D+00  E= 6.276495D-01  Symmetry=a'
              MO Center= -5.0D-01,  3.8D-10, -5.3D-09, r^2= 1.7D+00
   Bfn.  Coefficient  Atom+Function         Bfn.  Coefficient  Atom+Function  
  ----- ------------  ---------------      ----- ------------  ---------------
    15      0.836212  2 H  s                 20      0.836212  3 H  s          
    16     -0.637711  2 H  s                 21     -0.637711  3 H  s          
     3      0.434418  1 O  s                  4      0.394897  1 O  px         
     2     -0.383376  1 O  s                 19      0.204952  2 H  pz         
    24     -0.204952  3 H  pz                 1     -0.103644  1 O  s          

 Vector   10  Occ=0.000000D+00  E= 9.102298D-01  Symmetry=a'
              MO Center=  4.1D-01,  5.2D-08,  1.7D-10, r^2= 1.1D+00
   Bfn.  Coefficient  Atom+Function         Bfn.  Coefficient  Atom+Function  
  ----- ------------  ---------------      ----- ------------  ---------------
     7      1.133773  1 O  px                 4     -0.770846  1 O  px         
     2     -0.665190  1 O  s                 15      0.391883  2 H  s          
    20      0.391883  3 H  s                  3      0.215967  1 O  s          
     1     -0.152063  1 O  s                 17      0.121668  2 H  px         
    22      0.121668  3 H  px                16     -0.038702  2 H  s          

 Vector   11  Occ=0.000000D+00  E= 9.156457D-01  Symmetry=a'
              MO Center=  1.2D-01, -5.0D-08, -1.1D-11, r^2= 1.1D+00
   Bfn.  Coefficient  Atom+Function         Bfn.  Coefficient  Atom+Function  
  ----- ------------  ---------------      ----- ------------  ---------------
     8     -1.022191  1 O  py                 5      0.965770  1 O  py         

 Vector   12  Occ=0.000000D+00  E= 1.005264D+00  Symmetry=a"
              MO Center=  1.4D-01, -2.7D-11,  1.0D-09, r^2= 1.7D+00
   Bfn.  Coefficient  Atom+Function         Bfn.  Coefficient  Atom+Function  
  ----- ------------  ---------------      ----- ------------  ---------------
     9      1.734150  1 O  pz                16     -0.827312  2 H  s          
    21      0.827312  3 H  s                  6     -0.782325  1 O  pz         
    15     -0.333060  2 H  s                 20      0.333060  3 H  s          
    19      0.218520  2 H  pz                24      0.218520  3 H  pz         
    17     -0.128646  2 H  px                22      0.128646  3 H  px         

 Vector   13  Occ=0.000000D+00  E= 1.097997D+00  Symmetry=a'
              MO Center= -2.9D-01, -2.6D-09, -1.1D-10, r^2= 1.4D+00
   Bfn.  Coefficient  Atom+Function         Bfn.  Coefficient  Atom+Function  
  ----- ------------  ---------------      ----- ------------  ---------------
     3      2.759829  1 O  s                  2     -1.522861  1 O  s          
     7     -0.679152  1 O  px                15     -0.537232  2 H  s          
    20     -0.537232  3 H  s                 16     -0.510372  2 H  s          
    21     -0.510372  3 H  s                 17     -0.314073  2 H  px         
    22     -0.314073  3 H  px                 1     -0.240337  1 O  s          

 Vector   14  Occ=0.000000D+00  E= 1.354352D+00  Symmetry=a"
              MO Center= -4.2D-01,  2.2D-11, -4.6D-10, r^2= 9.9D-01
   Bfn.  Coefficient  Atom+Function         Bfn.  Coefficient  Atom+Function  
  ----- ------------  ---------------      ----- ------------  ---------------
    18      0.667378  2 H  py                23     -0.667378  3 H  py         
    11      0.175782  1 O  d -1       

 Vector   15  Occ=0.000000D+00  E= 1.393920D+00  Symmetry=a'
              MO Center= -1.8D-01, -1.1D-10,  3.3D-10, r^2= 1.2D+00
   Bfn.  Coefficient  Atom+Function         Bfn.  Coefficient  Atom+Function  
  ----- ------------  ---------------      ----- ------------  ---------------
     3      1.673516  1 O  s                  7     -1.183291  1 O  px         
    15     -0.733650  2 H  s                 20     -0.733650  3 H  s          
     2     -0.697509  1 O  s                 19      0.447020  2 H  pz         
    24     -0.447020  3 H  pz                17      0.426679  2 H  px         
    22      0.426679  3 H  px                16     -0.183577  2 H  s          

 Vector   16  Occ=0.000000D+00  E= 1.543759D+00  Symmetry=a'
              MO Center= -2.9D-01, -2.4D-10,  5.0D-10, r^2= 1.1D+00
   Bfn.  Coefficient  Atom+Function         Bfn.  Coefficient  Atom+Function  
  ----- ------------  ---------------      ----- ------------  ---------------
    18      0.731598  2 H  py                23      0.731598  3 H  py         
     8     -0.570891  1 O  py                10     -0.211081  1 O  d -2       

 Vector   17  Occ=0.000000D+00  E= 1.794136D+00  Symmetry=a"
              MO Center= -4.2D-01,  3.1D-12, -3.3D-10, r^2= 1.2D+00
   Bfn.  Coefficient  Atom+Function         Bfn.  Coefficient  Atom+Function  
  ----- ------------  ---------------      ----- ------------  ---------------
     9      0.798888  1 O  pz                17     -0.677819  2 H  px         
    22      0.677819  3 H  px                19     -0.454083  2 H  pz         
    24     -0.454083  3 H  pz                15     -0.331287  2 H  s          
    20      0.331287  3 H  s                 16     -0.091157  2 H  s          
    21      0.091157  3 H  s                 13     -0.029357  1 O  d  1       

 Vector   18  Occ=0.000000D+00  E= 2.202933D+00  Symmetry=a"
              MO Center= -3.7D-01, -3.5D-12,  6.1D-09, r^2= 1.1D+00
   Bfn.  Coefficient  Atom+Function         Bfn.  Coefficient  Atom+Function  
  ----- ------------  ---------------      ----- ------------  ---------------
     6      0.721059  1 O  pz                19      0.686876  2 H  pz         
    24      0.686876  3 H  pz                17     -0.518054  2 H  px         
    22      0.518054  3 H  px                16     -0.337326  2 H  s          
    21      0.337326  3 H  s                 15     -0.190333  2 H  s          
    20      0.190333  3 H  s                 13     -0.171947  1 O  d  1       

 Vector   19  Occ=0.000000D+00  E= 2.250429D+00  Symmetry=a'
              MO Center= -3.5D-01,  7.8D-11, -6.0D-09, r^2= 9.9D-01
   Bfn.  Coefficient  Atom+Function         Bfn.  Coefficient  Atom+Function  
  ----- ------------  ---------------      ----- ------------  ---------------
     2      0.726931  1 O  s                 19      0.704327  2 H  pz         
    24     -0.704327  3 H  pz                 3      0.692293  1 O  s          
     4     -0.585787  1 O  px                17     -0.516895  2 H  px         
    22     -0.516895  3 H  px                15     -0.397297  2 H  s          
    20     -0.397297  3 H  s                  7     -0.214542  1 O  px         

 Vector   20  Occ=0.000000D+00  E= 2.960116D+00  Symmetry=a'
              MO Center=  3.8D-02,  2.0D-11, -8.4D-10, r^2= 6.0D-01
   Bfn.  Coefficient  Atom+Function         Bfn.  Coefficient  Atom+Function  
  ----- ------------  ---------------      ----- ------------  ---------------
    10      1.028560  1 O  d -2              18      0.412718  2 H  py         
    23      0.412718  3 H  py                 8     -0.300444  1 O  py         

 Vector   21  Occ=0.000000D+00  E= 2.994398D+00  Symmetry=a"
              MO Center=  4.9D-02,  7.6D-12,  8.4D-10, r^2= 5.9D-01
   Bfn.  Coefficient  Atom+Function         Bfn.  Coefficient  Atom+Function  
  ----- ------------  ---------------      ----- ------------  ---------------
    11      1.050687  1 O  d -1              18     -0.380070  2 H  py         
    23      0.380070  3 H  py         

 Vector   22  Occ=0.000000D+00  E= 3.184412D+00  Symmetry=a'
              MO Center=  3.4D-02,  1.0D-11, -1.6D-11, r^2= 6.7D-01
   Bfn.  Coefficient  Atom+Function         Bfn.  Coefficient  Atom+Function  
  ----- ------------  ---------------      ----- ------------  ---------------
    14     -0.794057  1 O  d  2              12      0.740025  1 O  d  0       
     7      0.497567  1 O  px                 3     -0.435069  1 O  s          
    19     -0.343627  2 H  pz                24      0.343627  3 H  pz         
    17     -0.339472  2 H  px                22     -0.339472  3 H  px         
    15      0.250939  2 H  s                 20      0.250939  3 H  s          

 Vector   23  Occ=0.000000D+00  E= 3.481358D+00  Symmetry=a'
              MO Center= -3.1D-02, -2.0D-11, -3.6D-10, r^2= 7.9D-01
   Bfn.  Coefficient  Atom+Function         Bfn.  Coefficient  Atom+Function  
  ----- ------------  ---------------      ----- ------------  ---------------
     3      1.928459  1 O  s                 15     -1.146076  2 H  s          
    20     -1.146076  3 H  s                  7     -0.941322  1 O  px         
    12      0.866832  1 O  d  0              14      0.747219  1 O  d  2       
    19      0.624830  2 H  pz                24     -0.624830  3 H  pz         
    17     -0.485515  2 H  px                22     -0.485515  3 H  px         

 Vector   24  Occ=0.000000D+00  E= 3.820884D+00  Symmetry=a"
              MO Center=  7.4D-02, -2.2D-13,  3.4D-10, r^2= 8.0D-01
   Bfn.  Coefficient  Atom+Function         Bfn.  Coefficient  Atom+Function  
  ----- ------------  ---------------      ----- ------------  ---------------
    13      1.335464  1 O  d  1               9      1.099954  1 O  pz         
    15     -1.032330  2 H  s                 20      1.032330  3 H  s          
    19      0.613879  2 H  pz                24      0.613879  3 H  pz         
    17     -0.523572  2 H  px                22      0.523572  3 H  px         
     6      0.461626  1 O  pz                16     -0.273380  2 H  s          


 center of mass
 --------------
 x =   0.10711878 y =   0.00000000 z =   0.00000000

 moments of inertia (a.u.)
 ------------------
           4.119071332590           0.000000000000           0.000000000000
           0.000000000000           6.447862835906           0.000000000000
           0.000000000000           0.000000000000           2.328791503316

     Multipole analysis of the density
     ---------------------------------

     L   x y z        total         alpha         beta         nuclear
     -   - - -        -----         -----         ----         -------
     0   0 0 0     -0.000000     -5.000000     -5.000000     10.000000

     1   1 0 0     -0.854757     -0.460627     -0.460627      0.066496
     1   0 1 0     -0.000000     -0.000000     -0.000000      0.000000
     1   0 0 1      0.000000      0.000000      0.000000      0.000000

     2   2 0 0     -4.393444     -3.237704     -3.237704      2.081964
     2   1 1 0      0.000000      0.000000      0.000000      0.000000
     2   1 0 1     -0.000000     -0.000000     -0.000000      0.000000
     2   0 2 0     -5.216994     -2.608497     -2.608497      0.000000
     2   0 1 1      0.000000      0.000000      0.000000      0.000000
     2   0 0 2     -3.168379     -3.627734     -3.627734      4.087090


 Parallel integral file used       1 records with       0 large values

                                NWChem TDDFT Module
                                -------------------


            TDDFT/B3LYP/def2-TZVP/COSMO geometry optimization of Water


            General Information
            -------------------
           No. of orbitals :      48
            Alpha orbitals :      24
             Beta orbitals :      24
        Alpha frozen cores :       0
         Beta frozen cores :       0
     Alpha frozen virtuals :       0
      Beta frozen virtuals :       0
         Spin multiplicity :       1
    Number of AO functions :      24
        Use of symmetry is : off
      Symmetry adaption is : on 
         Schwarz screening :  0.10D-07

              XC Information
              --------------
                  B3LYP Method XC Potential
              Hartree-Fock (Exact) Exchange   0.20          
                 Slater Exchange Functional   0.80 local    
             Becke 1988 Exchange Functional   0.72 non-local
       Lee-Yang-Parr Correlation Functional   0.81          
           VWN I RPA Correlation Functional   0.19 local    

             TDDFT Information
             -----------------
          Calculation type : TDDFT             
         Wavefunction type : Restricted singlets
          No. of electrons :      10
           Alpha electrons :       5
            Beta electrons :       5
              No. of roots :       5
          Max subspacesize :    5000
            Max iterations :     100
               Target root :       1
           Target symmetry : a   
      Symmetry restriction : off
                 Algorithm : Incore multiple tensor contraction
        Davidson threshold :  0.10D-03

 solvent parameters
 solvname_short: toluene 
 solvname_long:  toluene                            
 dielec:        2.3741
 dielecinf:     2.2383

 solvent accessible surface
 --------------------------

 ---------- ATOMIC COORDINATES (A.U.) ------------ VDWR(ANG.) --
     1    0.23476805    0.00000000    0.00000000     1.720
     2   -0.90582429    0.00000000    1.42952612     1.300
     3   -0.90582429    0.00000000   -1.42952612     1.300
 number of segments per atom =         32
 number of   points per atom =         32
 atom (   nspa,  nppa )
 ----------------------
    1 (     20,     0 )       0
    2 (     20,     0 )       0
    3 (     20,     0 )       0
 number of -cosmo- surface points =       60
 molecular surface =     40.809 angstrom**2
 molecular volume  =     20.933 angstrom**3
 G(cav/disp)       =      1.064 kcal/mol

            Memory Information
            ------------------
          Available GA space size is        1073741248 doubles
          Available MA space size is        1073739636 doubles
          Length of a trial vector is           95
          Estimated peak GA usage is           1926294 doubles
          Estimated peak MA usage is             18000 doubles

    5 smallest eigenvalue differences (eV) 
--------------------------------------------------------
  No. Spin  Occ  Vir  Irrep   E(Occ)    E(Vir)   E(Diff)
--------------------------------------------------------
    1    1    5    6 a'       -0.294     0.055     9.492
    2    1    4    6 a'       -0.371     0.055    11.592
    3    1    5    7 a"       -0.294     0.135    11.677
    4    1    4    7 a"       -0.371     0.135    13.777
    5    1    3    6 a"       -0.508     0.055    15.319
--------------------------------------------------------

  Entering Davidson iterations
  Restricted singlet excited states

  Iter   NTrls   NConv    DeltaV     DeltaE      Time   
  ----  ------  ------  ---------  ---------  --------- 
    1      5       0     0.25E+00   0.10+100        1.6
    2     15       0     0.34E-01   0.13E-01        3.0
    3     25       0     0.59E-02   0.46E-03        3.0
    4     35       1     0.12E-02   0.10E-04        3.1
    5     43       4     0.19E-03   0.27E-06        2.4
    6     45       5     0.35E-04   0.50E-08        0.9
  ----  ------  ------  ---------  ---------  --------- 
  Convergence criterion met

  Ground state a'        -76.364766040060 a.u.

  ----------------------------------------------------------------------------
  Root   1 singlet a'             0.289247815 a.u.                7.8708 eV 
  ----------------------------------------------------------------------------
     Transition Moments    X -0.00000   Y -0.31095   Z  0.00000
     Transition Moments   XX  0.00000  XY  0.07719  XZ -0.00000
     Transition Moments   YY -0.00000  YZ -0.00000  ZZ  0.00000
     Dipole Oscillator Strength                    0.0186454248
     Electric Quadrupole                           0.0000000008
     Magnetic Dipole                               0.0000000716
     Total Oscillator Strength                     0.0186454972

     Occ.    5  a'  ---  Virt.    6  a'  -0.99995 X
  ----------------------------------------------------------------------------
  Root   2 singlet a"             0.360585071 a.u.                9.8120 eV 
  ----------------------------------------------------------------------------
     Transition Moments    X -0.00000   Y -0.00000   Z  0.00000
     Transition Moments   XX  0.00000  XY -0.00000  XZ -0.00000
     Transition Moments   YY -0.00000  YZ -0.29797  ZZ  0.00000
     Dipole Oscillator Strength                    0.0000000000
     Electric Quadrupole                           0.0000000222
     Magnetic Dipole                               0.0000002649
     Total Oscillator Strength                     0.0000002870

     Occ.    5  a'  ---  Virt.    7  a"   0.99891 X
  ----------------------------------------------------------------------------
  Root   3 singlet a'             0.375657491 a.u.               10.2222 eV 
  ----------------------------------------------------------------------------
     Transition Moments    X -0.56763   Y  0.00000   Z  0.00000
     Transition Moments   XX  0.41231  XY -0.00000  XZ -0.00000
     Transition Moments   YY  0.08997  YZ  0.00000  ZZ  0.50340
     Dipole Oscillator Strength                    0.0806934945
     Electric Quadrupole                           0.0000000133
     Magnetic Dipole                               0.0000000000
     Total Oscillator Strength                     0.0806935078

     Occ.    3  a"  ---  Virt.    7  a"   0.09407 X
     Occ.    4  a'  ---  Virt.    6  a'  -0.99499 X
  ----------------------------------------------------------------------------
  Root   4 singlet a"             0.451148253 a.u.               12.2764 eV 
  ----------------------------------------------------------------------------
     Transition Moments    X -0.00000   Y -0.00000   Z  0.43298
     Transition Moments   XX  0.00000  XY -0.00000  XZ -0.59487
     Transition Moments   YY  0.00000  YZ  0.00000  ZZ  0.00000
     Dipole Oscillator Strength                    0.0563845302
     Electric Quadrupole                           0.0000001730
     Magnetic Dipole                               0.0000003783
     Total Oscillator Strength                     0.0563850814

     Occ.    3  a"  ---  Virt.    6  a'  -0.11312 X
     Occ.    4  a'  ---  Virt.    7  a"   0.99270 X
  ----------------------------------------------------------------------------
  Root   5 singlet a"             0.512789575 a.u.               13.9537 eV 
  ----------------------------------------------------------------------------
     Transition Moments    X -0.00000   Y  0.00000   Z -0.89933
     Transition Moments   XX  0.00000  XY -0.00000  XZ  0.84796
     Transition Moments   YY  0.00000  YZ -0.00000  ZZ -0.00000
     Dipole Oscillator Strength                    0.2764949093
     Electric Quadrupole                           0.0000005163
     Magnetic Dipole                               0.0000000180
     Total Oscillator Strength                     0.2764954436

     Occ.    3  a"  ---  Virt.    6  a'  -0.99284 X
     Occ.    4  a'  ---  Virt.    7  a"  -0.11248 X
 ------------------------------------------------------------------------
 tddft_analysis: target root not found                   0
 ------------------------------------------------------------------------
 ------------------------------------------------------------------------
  current input line : 
    83: task tddft optimize
 ------------------------------------------------------------------------
 ------------------------------------------------------------------------
 This error has not yet been assigned to a category
 ------------------------------------------------------------------------
 For more information see the NWChem manual at https://github.com/nwchemgit/nwchem/wiki


 For further details see manual section: No section for this category                                                                                                                                                                                                                                   
