      -----------------------------------------------------------      
     |                   =====================                   |     
     |                           x T B                           |     
     |                   =====================                   |     
     |                         S. Grimme                         |     
     |          Mulliken Center for Theoretical Chemistry        |     
     |                    University of Bonn                     |     
      -----------------------------------------------------------      

   * xtb version 6.6.1 (8d0f1dd) compiled by 'conda@1efc2f54142f' on 2023-08-01

   xtb is free software: you can redistribute it and/or modify it under
   the terms of the GNU Lesser General Public License as published by
   the Free Software Foundation, either version 3 of the License, or
   (at your option) any later version.
   
   xtb is distributed in the hope that it will be useful,
   but WITHOUT ANY WARRANTY; without even the implied warranty of
   MERCHANTABILITY or FITNESS FOR A PARTICULAR PURPOSE.  See the
   GNU Lesser General Public License for more details.
   
   Cite this work as:
   * C. Bannwarth, E. Caldeweyher, S. Ehlert, A. Hansen, P. Pracht,
     J. Seibert, S. Spicher, S. Grimme, WIREs Comput. Mol. Sci., 2020, 11,
     e01493. DOI: 10.1002/wcms.1493
   
   for GFN2-xTB:
   * C. Bannwarth, S. Ehlert and S. Grimme., J. Chem. Theory Comput., 2019,
     15, 1652-1671. DOI: 10.1021/acs.jctc.8b01176
   for GFN1-xTB:
   * S. Grimme, C. Bannwarth, P. Shushkov, J. Chem. Theory Comput., 2017,
     13, 1989-2009. DOI: 10.1021/acs.jctc.7b00118
   for GFN0-xTB:
   * P. Pracht, E. Caldeweyher, S. Ehlert, S. Grimme, ChemRxiv, 2019, preprint.
     DOI: 10.26434/chemrxiv.8326202.v1
   for GFN-FF:
   * S. Spicher and S. Grimme, Angew. Chem. Int. Ed., 2020, 59, 15665-15673.
     DOI: 10.1002/anie.202004239
   
   for ALPB and GBSA implicit solvation:
   * S. Ehlert, M. Stahn, S. Spicher, S. Grimme, J. Chem. Theory Comput.,
     2021, 17, 4250-4261. DOI: 10.1021/acs.jctc.1c00471
   
   for DFT-D4:
   * E. Caldeweyher, C. Bannwarth and S. Grimme, J. Chem. Phys., 2017,
     147, 034112. DOI: 10.1063/1.4993215
   * E. Caldeweyher, S. Ehlert, A. Hansen, H. Neugebauer, S. Spicher,
     C. Bannwarth and S. Grimme, J. Chem. Phys., 2019, 150, 154122.
     DOI: 10.1063/1.5090222
   * E. Caldeweyher, J.-M. Mewes, S. Ehlert and S. Grimme, Phys. Chem. Chem. Phys.
     2020, 22, 8499-8512. DOI: 10.1039/D0CP00502A
   
   for sTDA-xTB:
   * S. Grimme and C. Bannwarth, J. Chem. Phys., 2016, 145, 054103.
     DOI: 10.1063/1.4959605
   
   in the mass-spec context:
   * V. Asgeirsson, C. Bauer and S. Grimme, Chem. Sci., 2017, 8, 4879.
     DOI: 10.1039/c7sc00601b
   * J. Koopman and S. Grimme, ACS Omega 2019, 4, 12, 15120-15133.
     DOI: 10.1021/acsomega.9b02011
   
   for metadynamics refer to:
   * S. Grimme, J. Chem. Theory Comput., 2019, 155, 2847-2862
     DOI: 10.1021/acs.jctc.9b00143
   
   for SPH calculations refer to:
   * S. Spicher and S. Grimme, J. Chem. Theory Comput., 2021, 17, 1701-1714
     DOI: 10.1021/acs.jctc.0c01306
   
   with help from (in alphabetical order)
   P. Atkinson, C. Bannwarth, F. Bohle, G. Brandenburg, E. Caldeweyher
   M. Checinski, S. Dohm, S. Ehlert, S. Ehrlich, I. Gerasimov, C. Hölzer
   A. Katbashev, J. Koopman, C. Lavigne, S. Lehtola, F. März, M. Müller,
   F. Musil, H. Neugebauer, J. Pisarek, C. Plett, P. Pracht, F. Pultar,
   J. Seibert, P. Shushkov, S. Spicher, M. Stahn, M. Steiner, T. Strunk,
   J. Stückrath, T. Rose, and J. Unsleber
   
 * started run on 2024/02/27 at 08:26:36.154     

           -------------------------------------------------
          |                Calculation Setup                |
           -------------------------------------------------

          program call               : xtb crest_best.xyz --gfn2 --opt vtight --parallel 1
          coordinate file            : crest_best.xyz
          omp threads                :                     4

   ID    Z sym.   atoms
    1    5 B      1
    2    7 N      2, 9
    3    6 C      3-8, 10-12
    4    9 F      13, 14
    5    1 H      15-21

           -------------------------------------------------
          |                 G F N 2 - x T B                 |
           -------------------------------------------------

        Reference                      10.1021/acs.jctc.8b01176
      * Hamiltonian:
        H0-scaling (s, p, d)           1.850000    2.230000    2.230000
        zeta-weighting                 0.500000
      * Dispersion:
        s8                             2.700000
        a1                             0.520000
        a2                             5.000000
        s9                             5.000000
      * Repulsion:
        kExp                           1.500000    1.000000
        rExp                           1.000000
      * Coulomb:
        alpha                          2.000000
        third order                    shell-resolved
        anisotropic                    true
        a3                             3.000000
        a5                             4.000000
        cn-shift                       1.200000
        cn-exp                         4.000000
        max-rad                        5.000000


          ...................................................
          :                      SETUP                      :
          :.................................................:
          :  # basis functions                  63          :
          :  # atomic orbitals                  63          :
          :  # shells                           35          :
          :  # electrons                        70          :
          :  max. iterations                   250          :
          :  Hamiltonian                  GFN2-xTB          :
          :  restarted?                      false          :
          :  GBSA solvation                  false          :
          :  PC potential                    false          :
          :  electronic temp.          300.0000000     K    :
          :  accuracy                    1.0000000          :
          :  -> integral cutoff          0.2500000E+02      :
          :  -> integral neglect         0.1000000E-07      :
          :  -> SCF convergence          0.1000000E-05 Eh   :
          :  -> wf. convergence          0.1000000E-03 e    :
          :  Broyden damping             0.4000000          :
          ...................................................

 iter      E             dE          RMSdq      gap      omega  full diag
   1    -39.8646757 -0.398647E+02  0.570E+00    1.93       0.0  T
   2    -39.9988244 -0.134149E+00  0.387E+00    1.68       1.0  T
   3    -39.9913045  0.751989E-02  0.165E+00    1.91       1.0  T
   4    -40.0181101 -0.268056E-01  0.686E-01    1.70       1.0  T
   5    -40.0255423 -0.743219E-02  0.252E-01    1.77       1.0  T
   6    -40.0259102 -0.367929E-03  0.123E-01    1.74       1.0  T
   7    -40.0260451 -0.134942E-03  0.600E-02    1.76       1.0  T
   8    -40.0260914 -0.462812E-04  0.137E-02    1.76       1.6  T
   9    -40.0260934 -0.199381E-05  0.528E-03    1.76       4.1  T
  10    -40.0260935 -0.681247E-07  0.237E-03    1.76       9.2  T
  11    -40.0260935 -0.754550E-08  0.153E-03    1.76      14.3  T
  12    -40.0260935 -0.443121E-07  0.510E-04    1.76      42.8  T
  13    -40.0260935 -0.511136E-08  0.171E-04    1.76     127.6  T

   *** convergence criteria satisfied after 13 iterations ***

         #    Occupation            Energy/Eh            Energy/eV
      -------------------------------------------------------------
         1        2.0000           -0.7605727             -20.6962
       ...           ...                  ...                  ...
        29        2.0000           -0.4505919             -12.2612
        30        2.0000           -0.4426492             -12.0451
        31        2.0000           -0.4382091             -11.9243
        32        2.0000           -0.4284320             -11.6582
        33        2.0000           -0.4225978             -11.4995
        34        2.0000           -0.4222179             -11.4891
        35        2.0000           -0.3999626             -10.8835 (HOMO)
        36                         -0.3354158              -9.1271 (LUMO)
        37                         -0.2210182              -6.0142
        38                         -0.1959267              -5.3314
        39                         -0.1804114              -4.9092
        40                         -0.1384724              -3.7680
       ...                                ...                  ...
        63                          0.6757943              18.3893
      -------------------------------------------------------------
                  HL-Gap            0.0645468 Eh            1.7564 eV
             Fermi-level           -0.3676892 Eh          -10.0053 eV

 SCC (total)                   0 d,  0 h,  0 min,  0.015 sec
 SCC setup                      ...        0 min,  0.000 sec (  0.890%)
 Dispersion                     ...        0 min,  0.000 sec (  1.081%)
 classical contributions        ...        0 min,  0.000 sec (  1.039%)
 integral evaluation            ...        0 min,  0.001 sec (  7.599%)
 iterations                     ...        0 min,  0.011 sec ( 72.930%)
 molecular gradient             ...        0 min,  0.002 sec ( 15.358%)
 printout                       ...        0 min,  0.000 sec (  0.936%)

         :::::::::::::::::::::::::::::::::::::::::::::::::::::
         ::                     SUMMARY                     ::
         :::::::::::::::::::::::::::::::::::::::::::::::::::::
         :: total energy             -39.522746600563 Eh    ::
         :: gradient norm              0.066801928956 Eh/a0 ::
         :: HOMO-LUMO gap              1.756408432313 eV    ::
         ::.................................................::
         :: SCC energy               -40.026093527137 Eh    ::
         :: -> isotropic ES            0.086819355899 Eh    ::
         :: -> anisotropic ES         -0.003639062618 Eh    ::
         :: -> anisotropic XC          0.012917402499 Eh    ::
         :: -> dispersion             -0.021150100687 Eh    ::
         :: repulsion energy           0.503306300466 Eh    ::
         :: add. restraining           0.000000000000 Eh    ::
         :: total charge               0.000000000000 e     ::
         :::::::::::::::::::::::::::::::::::::::::::::::::::::

      ----------------------------------------------------------- 
     |                   =====================                   |
     |                        A N C O P T                        |
     |                   =====================                   |
     |               Approximate Normal Coordinate               |
     |                Rational Function Optimizer                |
      ----------------------------------------------------------- 

          ...................................................
          :                      SETUP                      :
          :.................................................:
          :   optimization level         verytight          :
          :   max. optcycles                   420          :
          :   ANC micro-cycles                  20          :
          :   degrees of freedom                57          :
          :.................................................:
          :   RF solver                   davidson          :
          :   write xtbopt.log                true          :
          :   linear?                        false          :
          :   energy convergence         0.1000000E-06 Eh   :
          :   grad. convergence          0.2000000E-03 Eh/α :
          :   maxmium RF displ.          1.0000000          :
          :   Hlow (freq-cutoff)         0.1000000E-01      :
          :   Hmax (freq-cutoff)         5.0000000          :
          :   S6 in model hess.         20.0000000          :
          ...................................................

generating ANC from model Hessian ...
Using Lindh-Hessian (1995)
 Shifting diagonal of input Hessian by    6.4066919923710585E-003
 Lowest  eigenvalues of input Hessian
    0.000000    0.000000    0.000000    0.000000    0.000000    0.000000
    0.010000    0.011441    0.016519    0.021247    0.022796    0.026479
    0.027536    0.033025    0.045679    0.050077    0.059249    0.065466
 Highest eigenvalues
    1.869190    1.901447    1.910437    1.947509    2.036131    2.157320


........................................................................
.............................. CYCLE    1 ..............................
........................................................................

 iter      E             dE          RMSdq      gap      omega  full diag
   1    -40.0260935 -0.400261E+02  0.355E-05    1.76       0.0  T
   2    -40.0260935 -0.821387E-11  0.213E-05    1.76    1026.4  T
   3    -40.0260935 -0.359535E-11  0.123E-05    1.76    1775.1  T
     SCC iter.                  ...        0 min,  0.003 sec
     gradient                   ...        0 min,  0.002 sec
 * total energy  :   -39.5227466 Eh     change       -0.4195186E-09 Eh
   gradient norm :     0.0668014 Eh/α   predicted     0.0000000E+00 (-100.00%)
   displ. norm   :     0.2336604 α      lambda       -0.1056838E-01
   maximum displ.:     0.1129309 α      in ANC's #23, #27, #24, ...

........................................................................
.............................. CYCLE    2 ..............................
........................................................................

 iter      E             dE          RMSdq      gap      omega  full diag
   1    -40.0447860 -0.400448E+02  0.353E-01    1.77       0.0  T
   2    -40.0448903 -0.104300E-03  0.208E-01    1.78       1.0  T
   3    -40.0448362  0.540441E-04  0.761E-02    1.77       1.0  T
   4    -40.0449137 -0.774143E-04  0.210E-02    1.78       1.0  T
   5    -40.0449206 -0.695483E-05  0.637E-03    1.78       3.4  T
   6    -40.0449206  0.405535E-09  0.379E-03    1.78       5.8  T
   7    -40.0449208 -0.199447E-06  0.903E-04    1.78      24.2  T
   8    -40.0449208 -0.955868E-08  0.414E-04    1.78      52.8  T
     SCC iter.                  ...        0 min,  0.007 sec
     gradient                   ...        0 min,  0.002 sec
 * total energy  :   -39.5296313 Eh     change       -0.6884666E-02 Eh
   gradient norm :     0.0224389 Eh/α   predicted    -0.5572864E-02 ( -19.05%)
   displ. norm   :     0.1275121 α      lambda       -0.1651315E-02
   maximum displ.:     0.0779274 α      in ANC's #6, #23, #24, ...

........................................................................
.............................. CYCLE    3 ..............................
........................................................................

 iter      E             dE          RMSdq      gap      omega  full diag
   1    -40.0511555 -0.400512E+02  0.149E-01    1.79       0.0  T
   2    -40.0511718 -0.163141E-04  0.872E-02    1.79       1.0  T
   3    -40.0511636  0.821739E-05  0.301E-02    1.79       1.0  T
   4    -40.0511766 -0.130613E-04  0.623E-03    1.79       3.5  T
   5    -40.0511770 -0.332971E-06  0.305E-03    1.79       7.2  T
   6    -40.0511770 -0.222621E-07  0.122E-03    1.79      17.8  T
   7    -40.0511770 -0.174041E-07  0.602E-04    1.79      36.3  T
   8    -40.0511770 -0.415208E-08  0.321E-04    1.79      67.9  T
     SCC iter.                  ...        0 min,  0.007 sec
     gradient                   ...        0 min,  0.002 sec
 * total energy  :   -39.5305262 Eh     change       -0.8949574E-03 Eh
   gradient norm :     0.0066586 Eh/α   predicted    -0.8392963E-03 (  -6.22%)
   displ. norm   :     0.0413757 α      lambda       -0.1068108E-03
   maximum displ.:     0.0342357 α      in ANC's #6, #23, #10, ...

........................................................................
.............................. CYCLE    4 ..............................
........................................................................

 iter      E             dE          RMSdq      gap      omega  full diag
   1    -40.0513054 -0.400513E+02  0.257E-02    1.79       0.0  T
   2    -40.0513067 -0.135668E-05  0.165E-02    1.79       1.3  T
   3    -40.0513064  0.349286E-06  0.762E-03    1.79       2.9  T
   4    -40.0513067 -0.365746E-06  0.410E-03    1.79       5.3  T
   5    -40.0513070 -0.284696E-06  0.969E-04    1.79      22.5  T
   6    -40.0513070 -0.375775E-08  0.309E-04    1.79      70.7  T
     SCC iter.                  ...        0 min,  0.005 sec
     gradient                   ...        0 min,  0.002 sec
 * total energy  :   -39.5306038 Eh     change       -0.7757586E-04 Eh
   gradient norm :     0.0039857 Eh/α   predicted    -0.5351227E-04 ( -31.02%)
   displ. norm   :     0.0375295 α      lambda       -0.5392974E-04
   maximum displ.:     0.0314796 α      in ANC's #6, #10, #17, ...

........................................................................
.............................. CYCLE    5 ..............................
........................................................................

 iter      E             dE          RMSdq      gap      omega  full diag
   1    -40.0512315 -0.400512E+02  0.264E-02    1.79       0.0  T
   2    -40.0512332 -0.170010E-05  0.172E-02    1.79       1.3  T
   3    -40.0512330  0.126915E-06  0.803E-03    1.79       2.7  T
   4    -40.0512332 -0.169510E-06  0.417E-03    1.79       5.2  T
   5    -40.0512335 -0.258445E-06  0.117E-03    1.79      18.6  T
   6    -40.0512335 -0.970290E-08  0.418E-04    1.79      52.2  T
   7    -40.0512335 -0.316412E-08  0.137E-04    1.79     159.8  T
     SCC iter.                  ...        0 min,  0.006 sec
     gradient                   ...        0 min,  0.002 sec
 * total energy  :   -39.5306329 Eh     change       -0.2914359E-04 Eh
   gradient norm :     0.0015343 Eh/α   predicted    -0.2700643E-04 (  -7.33%)
   displ. norm   :     0.0063592 α      lambda       -0.2355382E-05
   maximum displ.:     0.0046001 α      in ANC's #6, #15, #1, ...

........................................................................
.............................. CYCLE    6 ..............................
........................................................................

 iter      E             dE          RMSdq      gap      omega  full diag
   1    -40.0513029 -0.400513E+02  0.669E-03    1.79       0.0  T
   2    -40.0513030 -0.928280E-07  0.373E-03    1.79       5.9  T
   3    -40.0513029  0.414116E-08  0.181E-03    1.79      12.1  T
   4    -40.0513030 -0.179343E-07  0.741E-04    1.79      29.4  T
   5    -40.0513030 -0.318327E-08  0.386E-04    1.79      56.5  T
     SCC iter.                  ...        0 min,  0.004 sec
     gradient                   ...        0 min,  0.002 sec
 * total energy  :   -39.5306349 Eh     change       -0.1980671E-05 Eh
   gradient norm :     0.0005332 Eh/α   predicted    -0.1181119E-05 ( -40.37%)
   displ. norm   :     0.0027114 α      lambda       -0.3658716E-06
   maximum displ.:     0.0015681 α      in ANC's #1, #10, #6, ...

........................................................................
.............................. CYCLE    7 ..............................
........................................................................

 iter      E             dE          RMSdq      gap      omega  full diag
   1    -40.0513216 -0.400513E+02  0.286E-03    1.79       0.0  T
   2    -40.0513216 -0.265302E-07  0.170E-03    1.79      12.9  T
   3    -40.0513216 -0.333197E-08  0.959E-04    1.79      22.8  T
   4    -40.0513216 -0.409250E-08  0.356E-04    1.79      61.3  T
     SCC iter.                  ...        0 min,  0.005 sec
     gradient                   ...        0 min,  0.002 sec
 * total energy  :   -39.5306352 Eh     change       -0.2635099E-06 Eh
   gradient norm :     0.0001303 Eh/α   predicted    -0.1878421E-06 ( -28.72%)
   displ. norm   :     0.0012551 α      lambda       -0.1690705E-07
   maximum displ.:     0.0008900 α      in ANC's #1, #6, #5, ...

........................................................................
.............................. CYCLE    8 ..............................
........................................................................

 iter      E             dE          RMSdq      gap      omega  full diag
   1    -40.0513033 -0.400513E+02  0.829E-04    1.79       0.0  T
   2    -40.0513033 -0.172378E-09  0.497E-04    1.79      43.9  T
   3    -40.0513033  0.677822E-09  0.173E-04    1.79     126.4  T
     SCC iter.                  ...        0 min,  0.003 sec
     gradient                   ...        0 min,  0.002 sec
 * total energy  :   -39.5306352 Eh     change       -0.2298319E-07 Eh
   gradient norm :     0.0000709 Eh/α   predicted    -0.1591615E-07 ( -30.75%)
   displ. norm   :     0.0014071 α      lambda       -0.9386667E-08
   maximum displ.:     0.0011922 α      in ANC's #1, #3, #6, ...

   *** GEOMETRY OPTIMIZATION CONVERGED AFTER 8 ITERATIONS ***

------------------------------------------------------------------------
 total energy gain   :        -0.0078886 Eh       -4.9502 kcal/mol
 total RMSD          :         0.0873534 a0        0.0462 Å
 total power (kW/mol):        -2.5889430 (step) -275.9413 (real)
------------------------------------------------------------------------

 ANCopt (total)                0 d,  0 h,  0 min,  0.075 sec
 optimizer setup                ...        0 min,  0.000 sec (  0.079%)
 model hessian                  ...        0 min,  0.003 sec (  3.524%)
 ANC generation                 ...        0 min,  0.000 sec (  0.616%)
 coordinate transformation      ...        0 min,  0.000 sec (  0.143%)
 single point calculation       ...        0 min,  0.068 sec ( 91.168%)
 optimization log               ...        0 min,  0.001 sec (  0.999%)
 hessian update                 ...        0 min,  0.000 sec (  0.150%)
 rational function              ...        0 min,  0.001 sec (  0.698%)

================
 final structure:
================
21
 xtb: 6.6.1 (8d0f1dd)
B            0.00007975508872       -1.16310502857105        0.00011392014826
N           -1.24634784932987       -0.24123251300253        0.00128615781143
C           -2.51745967005939       -0.61970487279053        0.00296250982207
C           -3.35685920968723        0.50390176336459        0.00239547875539
C           -2.54066849425943        1.61143647955715        0.00007973273770
C           -1.20567032220829        1.13794236643601       -0.00046985608563
C           -0.00044976131305        1.82091339029405       -0.00170782132836
C            1.20501544736379        1.13836906426641       -0.00082916650845
N            1.24617912013703       -0.24078962051812        0.00086826721739
C            2.51742646619044       -0.61881477940707        0.00222214552765
C            3.35642785180546        0.50508715783226        0.00152420153732
C            2.53984536399578        1.61233521168005       -0.00060279922192
F            0.00001622115820       -1.94827553230326       -1.13039407798640
F            0.00042111707188       -1.95106281636612        1.12858902218768
H           -2.78176442933928       -1.65990824717435        0.00455900218193
H           -4.42855739728364        0.48258364208073        0.00357228930831
H           -2.83128108720848        2.64362177798487       -0.00093909545385
H           -0.00064151206260        2.90052473666582       -0.00315837778478
H            2.78209736471591       -1.65892482266993        0.00371847737431
H            4.42813366020374        0.48414893460965        0.00246073866936
H            2.83009422642030        2.64462254063138       -0.00166748780943

 Bond Distances (Angstroems)
 ---------------------------
B1-N2=1.5503         B1-N9=1.5503         B1-F13=1.3764        B1-F14=1.3763        N2-B1=1.5503         N2-C3=1.3263         
N2-C6=1.3798         C3-N2=1.3263         C3-C4=1.4025         C3-H15=1.0733        C4-C3=1.4025         C4-C5=1.3758         
C4-H16=1.0719        C5-C4=1.3758         C5-C6=1.4165         C5-H17=1.0723        C6-N2=1.3798         C6-C5=1.4165         
C6-C7=1.3853         C7-C6=1.3853         C7-C8=1.3853         C7-H18=1.0796        C8-C7=1.3853         C8-N9=1.3798         
C8-C12=1.4165        N9-B1=1.5503         N9-C8=1.3798         N9-C10=1.3263        C10-N9=1.3263        C10-C11=1.4025       
C10-H19=1.0733       C11-C10=1.4025       C11-C12=1.3758       C11-H20=1.0719       C12-C8=1.4165        C12-C11=1.3758       
C12-H21=1.0723       F13-B1=1.3764        F14-B1=1.3763        H15-C3=1.0733        H16-C4=1.0719        H17-C5=1.0723        
H18-C7=1.0796        H19-C10=1.0733       H20-C11=1.0719       H21-C12=1.0723       
 C  H  Rav=1.0735 sigma=0.0025  Rmin=1.0719  Rmax=1.0796     7
 C  C  Rav=1.3950 sigma=0.0157  Rmin=1.3758  Rmax=1.4165     8
 N  B  Rav=1.5503 sigma=0.0000  Rmin=1.5503  Rmax=1.5503     2
 N  C  Rav=1.3530 sigma=0.0268  Rmin=1.3263  Rmax=1.3798     4
 F  B  Rav=1.3764 sigma=0.0000  Rmin=1.3763  Rmax=1.3764     2

 selected bond angles (degree)
 --------------------
N9-B1-N2=107.01                F13-B1-N2=109.86               F13-B1-N9=109.87               F14-B1-N2=109.88               
F14-B1-N9=109.88               F14-B1-F13=110.29              C3-N2-B1=126.93                C6-N2-B1=124.80                
C6-N2-C3=108.27                C4-C3-N2=110.18                H15-C3-N2=120.84               H15-C3-C4=128.98               
C5-C4-C3=106.85                H16-C4-C3=125.62               H16-C4-C5=127.53               C6-C5-C4=106.86                
H17-C5-C4=127.89               H17-C5-C6=125.25               C5-C6-N2=107.84                C7-C6-N2=121.23                
C7-C6-C5=130.93                C8-C7-C6=120.94                H18-C7-C6=119.53               H18-C7-C8=119.53               
N9-C8-C7=121.23                C12-C8-C7=130.93               C12-C8-N9=107.84               C8-N9-B1=124.80                
C10-N9-B1=126.93               C10-N9-C8=108.27               C11-C10-N9=110.18              H19-C10-N9=120.84              
H19-C10-C11=128.98             

 selected dihedral angles (degree)
 ---------------------------------
C3-N2-B1-N9=180.10            C3-N2-B1-F13= 60.87           C3-N2-B1-F14=299.35           C6-N2-B1-N9=  0.16            
C6-N2-B1-F13=240.93           C6-N2-B1-F14=119.41           C4-C3-N2-B1=180.05            C4-C3-N2-C6=  0.00            
H15-C3-N2-B1=  0.06           H15-C3-N2-C6=180.00           C5-C4-C3-N2=  0.00            C5-C4-C3-H15=180.00           
H16-C4-C3-N2=180.01           H16-C4-C3-H15=  0.00          C6-C5-C4-C3=  0.00            C6-C5-C4-H16=179.99           
H17-C5-C4-C3=180.00           H17-C5-C4-H16=  0.00          C5-C6-N2-B1=179.94            C5-C6-N2-C3=  0.00            
C7-C6-N2-B1=359.91            C7-C6-N2-C3=179.96            N2-C6-C5-C4=  0.00            N2-C6-C5-H17=180.00           
C7-C6-C5-C4=180.05            C7-C6-C5-H17=  0.03           C8-C7-C6-N2=  0.00            C8-C7-C6-C5=179.94            
H18-C7-C6-N2=179.99           H18-C7-C6-C5=359.96           N9-C8-C7-C6=  0.00            N9-C8-C7-H18=180.01           
C12-C8-C7-C6=180.06           C12-C8-C7-H18=  0.05          C8-N9-B1-N2=359.84            C8-N9-B1-F13=119.07           
C8-N9-B1-F14=240.59           C10-N9-B1-N2=179.89           C10-N9-B1-F13=299.12          C10-N9-B1-F14= 60.64          
B1-N9-C8-C7=  0.08            B1-N9-C8-C12=180.05           C10-N9-C8-C7=180.04           C10-N9-C8-C12=  0.00          
C11-C10-N9-B1=179.96          C11-C10-N9-C8=  0.00          H19-C10-N9-B1=359.95          H19-C10-N9-C8=180.00          
           -------------------------------------------------
          |                Final Singlepoint                |
           -------------------------------------------------

          ...................................................
          :                      SETUP                      :
          :.................................................:
          :  # basis functions                  63          :
          :  # atomic orbitals                  63          :
          :  # shells                           35          :
          :  # electrons                        70          :
          :  max. iterations                   250          :
          :  Hamiltonian                  GFN2-xTB          :
          :  restarted?                      false          :
          :  GBSA solvation                  false          :
          :  PC potential                    false          :
          :  electronic temp.          300.0000000     K    :
          :  accuracy                    1.0000000          :
          :  -> integral cutoff          0.2500000E+02      :
          :  -> integral neglect         0.1000000E-07      :
          :  -> SCF convergence          0.1000000E-05 Eh   :
          :  -> wf. convergence          0.1000000E-03 e    :
          :  Broyden damping             0.4000000          :
          ...................................................

 iter      E             dE          RMSdq      gap      omega  full diag
   1    -40.0513033 -0.400513E+02  0.673E-05    1.79       0.0  T
   2    -40.0513033  0.682832E-10  0.794E-05    1.79     274.8  T
   3    -40.0513033 -0.167141E-09  0.124E-05    1.79    1756.8  T

   *** convergence criteria satisfied after 3 iterations ***

         #    Occupation            Energy/Eh            Energy/eV
      -------------------------------------------------------------
         1        2.0000           -0.7666379             -20.8613
       ...           ...                  ...                  ...
        29        2.0000           -0.4548570             -12.3773
        30        2.0000           -0.4459835             -12.1358
        31        2.0000           -0.4437249             -12.0744
        32        2.0000           -0.4336689             -11.8007
        33        2.0000           -0.4263870             -11.6026
        34        2.0000           -0.4261752             -11.5968
        35        2.0000           -0.3983611             -10.8400 (HOMO)
        36                         -0.3325529              -9.0492 (LUMO)
        37                         -0.2169172              -5.9026
        38                         -0.1937092              -5.2711
        39                         -0.1792355              -4.8772
        40                         -0.1358546              -3.6968
       ...                                ...                  ...
        63                          0.6889987              18.7486
      -------------------------------------------------------------
                  HL-Gap            0.0658081 Eh            1.7907 eV
             Fermi-level           -0.3654570 Eh           -9.9446 eV

 SCC (total)                   0 d,  0 h,  0 min,  0.008 sec
 SCC setup                      ...        0 min,  0.000 sec (  1.203%)
 Dispersion                     ...        0 min,  0.000 sec (  0.930%)
 classical contributions        ...        0 min,  0.000 sec (  0.234%)
 integral evaluation            ...        0 min,  0.001 sec ( 11.247%)
 iterations                     ...        0 min,  0.004 sec ( 46.119%)
 molecular gradient             ...        0 min,  0.002 sec ( 29.241%)
 printout                       ...        0 min,  0.001 sec ( 10.484%)

         :::::::::::::::::::::::::::::::::::::::::::::::::::::
         ::                     SUMMARY                     ::
         :::::::::::::::::::::::::::::::::::::::::::::::::::::
         :: total energy             -39.530635211716 Eh    ::
         :: gradient norm              0.000069715303 Eh/a0 ::
         :: HOMO-LUMO gap              1.790730839381 eV    ::
         ::.................................................::
         :: SCC energy               -40.051303302718 Eh    ::
         :: -> isotropic ES            0.083952106133 Eh    ::
         :: -> anisotropic ES         -0.002748842309 Eh    ::
         :: -> anisotropic XC          0.011218410292 Eh    ::
         :: -> dispersion             -0.021117095446 Eh    ::
         :: repulsion energy           0.520629697694 Eh    ::
         :: add. restraining           0.000000000000 Eh    ::
         :: total charge              -0.000000000000 e     ::
         :::::::::::::::::::::::::::::::::::::::::::::::::::::

           -------------------------------------------------
          |                Property Printout                |
           -------------------------------------------------

    * Orbital Energies and Occupations

         #    Occupation            Energy/Eh            Energy/eV
      -------------------------------------------------------------
         1        2.0000           -0.7666379             -20.8613
       ...           ...                  ...                  ...
        23        2.0000           -0.4915223             -13.3750
        24        2.0000           -0.4822021             -13.1214
        25        2.0000           -0.4771566             -12.9841
        26        2.0000           -0.4754813             -12.9385
        27        2.0000           -0.4686634             -12.7530
        28        2.0000           -0.4596351             -12.5073
        29        2.0000           -0.4548570             -12.3773
        30        2.0000           -0.4459835             -12.1358
        31        2.0000           -0.4437249             -12.0744
        32        2.0000           -0.4336689             -11.8007
        33        2.0000           -0.4263870             -11.6026
        34        2.0000           -0.4261752             -11.5968
        35        2.0000           -0.3983611             -10.8400 (HOMO)
        36                         -0.3325529              -9.0492 (LUMO)
        37                         -0.2169172              -5.9026
        38                         -0.1937092              -5.2711
        39                         -0.1792355              -4.8772
        40                         -0.1358546              -3.6968
        41                          0.0411951               1.1210
        42                          0.0442553               1.2042
        43                          0.0825862               2.2473
        44                          0.0957857               2.6065
        45                          0.1149783               3.1287
        46                          0.1327637               3.6127
       ...                                ...                  ...
        63                          0.6889987              18.7486
      -------------------------------------------------------------
                  HL-Gap            0.0658081 Eh            1.7907 eV
             Fermi-level           -0.3654570 Eh           -9.9446 eV

     #   Z          covCN         q      C6AA      α(0)
     1   5 B        3.111     0.522    14.272     6.301
     2   7 N        2.748    -0.092    23.041     7.129
     3   6 C        3.076     0.044    26.927     8.508
     4   6 C        3.035    -0.051    29.232     8.868
     5   6 C        3.036    -0.043    29.021     8.836
     6   6 C        3.132     0.049    26.703     8.459
     7   6 C        2.900    -0.018    28.451     8.746
     8   6 C        3.132     0.049    26.703     8.459
     9   7 N        2.748    -0.092    23.041     7.129
    10   6 C        3.076     0.044    26.927     8.508
    11   6 C        3.035    -0.051    29.232     8.868
    12   6 C        3.036    -0.043    29.021     8.836
    13   9 F        0.722    -0.369    13.147     4.282
    14   9 F        0.722    -0.369    13.147     4.282
    15   1 H        0.926     0.072     2.058     2.244
    16   1 H        0.926     0.051     2.313     2.378
    17   1 H        0.926     0.050     2.316     2.380
    18   1 H        0.926     0.073     2.050     2.239
    19   1 H        0.926     0.072     2.058     2.244
    20   1 H        0.926     0.051     2.313     2.378
    21   1 H        0.926     0.050     2.316     2.380

 Mol. C6AA /au·bohr⁶  :       6139.255357
 Mol. C8AA /au·bohr⁸  :     152046.116968
 Mol. α(0) /au        :        123.452716


Wiberg/Mayer (AO) data.
largest (>0.10) Wiberg bond orders for each atom

 ---------------------------------------------------------------------------
     #   Z sym  total        # sym  WBO       # sym  WBO       # sym  WBO
 ---------------------------------------------------------------------------
     1   5 B    3.388 --    14 F    0.874    13 F    0.874     9 N    0.794
                             2 N    0.794
     2   7 N    3.615 --     3 C    1.416     6 C    1.150     1 B    0.794
     3   6 C    3.930 --     2 N    1.416     4 C    1.329    15 H    0.966
     4   6 C    3.961 --     5 C    1.535     3 C    1.329    16 H    0.973
     5   6 C    3.954 --     4 C    1.535     6 C    1.248    17 H    0.972
     6   6 C    3.964 --     7 C    1.372     5 C    1.248     2 N    1.150
     7   6 C    3.986 --     6 C    1.372     8 C    1.372    18 H    0.962
     8   6 C    3.964 --     7 C    1.372    12 C    1.248     9 N    1.150
     9   7 N    3.615 --    10 C    1.416     8 C    1.150     1 B    0.794
    10   6 C    3.930 --     9 N    1.416    11 C    1.329    19 H    0.966
    11   6 C    3.961 --    12 C    1.535    10 C    1.329    20 H    0.973
    12   6 C    3.954 --    11 C    1.535     8 C    1.248    21 H    0.972
    13   9 F    0.973 --     1 B    0.874
    14   9 F    0.973 --     1 B    0.874
    15   1 H    0.994 --     3 C    0.966
    16   1 H    0.997 --     4 C    0.973
    17   1 H    0.997 --     5 C    0.972
    18   1 H    0.994 --     7 C    0.962
    19   1 H    0.994 --    10 C    0.966
    20   1 H    0.997 --    11 C    0.973
    21   1 H    0.997 --    12 C    0.972
 ---------------------------------------------------------------------------

Topologies differ in total number of bonds
Writing topology from bond orders to xtbtopo.mol

molecular dipole:
                 x           y           z       tot (Debye)
 q only:       -0.000       1.887       0.002
   full:       -0.000       1.976       0.002       5.023
molecular quadrupole (traceless):
                xx          xy          yy          xz          yz          zz
 q only:       11.979       0.002      -4.844      -0.003      -0.012      -7.135
  q+dip:       14.800       0.002      -2.494      -0.004      -0.021     -12.306
   full:       12.857       0.002      -4.427      -0.003      -0.014      -8.430

           -------------------------------------------------
          |                Geometry Summary                 |
           -------------------------------------------------

      molecular mass/u    :      191.9734491
   center of mass at/Å    :       -0.0001243      -0.0122432       0.0003786
  moments of inertia/u·Å² :        0.3864076E+03   0.7760664E+03   0.1065524E+04
rotational constants/cm⁻¹ :        0.4362655E-01   0.2172190E-01   0.1582097E-01

 * 23 selected distances

     #   Z          #   Z                                           value/Å
     1   5 B        2   7 N                                       1.5503008 (max)
     2   7 N        3   6 C                                       1.3262616
     3   6 C        4   6 C                                       1.4025278
     4   6 C        5   6 C                                       1.3757929
     2   7 N        6   6 C                                       1.3797759
     5   6 C        6   6 C                                       1.4164807
     6   6 C        7   6 C                                       1.3852826
     7   6 C        8   6 C                                       1.3852849
     1   5 B        9   7 N                                       1.5503001
     8   6 C        9   7 N                                       1.3797740
     9   7 N       10   6 C                                       1.3262635
    10   6 C       11   6 C                                       1.4025262
     8   6 C       12   6 C                                       1.4164799
    11   6 C       12   6 C                                       1.3757943
     1   5 B       13   9 F                                       1.3764234
     1   5 B       14   9 F                                       1.3763481
     3   6 C       15   1 H                                       1.0732580
     4   6 C       16   1 H                                       1.0719109
     5   6 C       17   1 H                                       1.0723168
     7   6 C       18   1 H                                       1.0796124
    10   6 C       19   1 H                                       1.0732577
    11   6 C       20   1 H                                       1.0719108 (min)
    12   6 C       21   1 H                                       1.0723166

 * 5 distinct bonds (by element types)

   Z      Z             #   av. dist./Å        max./Å        min./Å
   1 H    6 C           7     1.0735119     1.0796124     1.0719108
   6 C    6 C           8     1.3950212     1.4164807     1.3757929
   5 B    7 N           2     1.5503004     1.5503008     1.5503001
   6 C    7 N           4     1.3530187     1.3797759     1.3262616
   5 B    9 F           2     1.3763857     1.3764234     1.3763481


optimized geometry written to: xtbopt.xyz


           -------------------------------------------------
          | TOTAL ENERGY              -39.530635211716 Eh   |
          | GRADIENT NORM               0.000069715303 Eh/α |
          | HOMO-LUMO GAP               1.790730839381 eV   |
           -------------------------------------------------

------------------------------------------------------------------------
 * finished run on 2024/02/27 at 08:26:36.264     
------------------------------------------------------------------------
 total:
 * wall-time:     0 d,  0 h,  0 min,  0.110 sec
 *  cpu-time:     0 d,  0 h,  0 min,  0.755 sec
 * ratio c/w:     6.879 speedup
 SCF:
 * wall-time:     0 d,  0 h,  0 min,  0.015 sec
 *  cpu-time:     0 d,  0 h,  0 min,  0.107 sec
 * ratio c/w:     7.215 speedup
 ANC optimizer:
 * wall-time:     0 d,  0 h,  0 min,  0.085 sec
 *  cpu-time:     0 d,  0 h,  0 min,  0.590 sec
 * ratio c/w:     6.972 speedup

