21
 energy: -39.549150648837 gnorm: 0.000049713542 xtb: 6.6.1 (8d0f1dd)
B           -0.00001023556420       -1.13810333871438        0.00013278434619
N            1.24567547444451       -0.22836183469576        0.00109536718586
C            2.52004172728225       -0.60582482446873        0.00269124662008
C            3.35738263890909        0.51784519098742        0.00230849497198
C            2.54013682633628        1.62578129620504        0.00021126227798
C            1.20546007621318        1.15284719107412       -0.00043398281561
C            0.00001339071465        1.83628185973815       -0.00145166454744
C           -1.20544582251231        1.15286521767454       -0.00047948449845
N           -1.24568255302803       -0.22834232425476        0.00108277018968
C           -2.52005574920044       -0.60578678310265        0.00265446324558
C           -3.35737792187287        0.51789631272878        0.00222576614798
C           -2.54011414147072        1.62582003616370        0.00011182418182
F           -0.00001956512989       -1.94849490320049        1.12750533772913
F           -0.00001283957943       -1.94581895919862       -1.12925512090453
H            2.78559591950708       -1.64623393171237        0.00409724550469
H            4.42919009282070        0.49575491296631        0.00347599365330
H            2.83040033149013        2.65809489015446       -0.00061589933310
H            0.00002140696682        2.91612561615402       -0.00270114083646
H           -2.78562612197303       -1.64619129217347        0.00409148178309
H           -4.42918552445639        0.49582285553071        0.00336846641132
H           -2.83036169829738        2.65813808014398       -0.00075686481310
