      -----------------------------------------------------------      
     |                   =====================                   |     
     |                           x T B                           |     
     |                   =====================                   |     
     |                         S. Grimme                         |     
     |          Mulliken Center for Theoretical Chemistry        |     
     |                    University of Bonn                     |     
      -----------------------------------------------------------      

   * xtb version 6.6.1 (8d0f1dd) compiled by 'conda@1efc2f54142f' on 2023-08-01

   xtb is free software: you can redistribute it and/or modify it under
   the terms of the GNU Lesser General Public License as published by
   the Free Software Foundation, either version 3 of the License, or
   (at your option) any later version.
   
   xtb is distributed in the hope that it will be useful,
   but WITHOUT ANY WARRANTY; without even the implied warranty of
   MERCHANTABILITY or FITNESS FOR A PARTICULAR PURPOSE.  See the
   GNU Lesser General Public License for more details.
   
   Cite this work as:
   * C. Bannwarth, E. Caldeweyher, S. Ehlert, A. Hansen, P. Pracht,
     J. Seibert, S. Spicher, S. Grimme, WIREs Comput. Mol. Sci., 2020, 11,
     e01493. DOI: 10.1002/wcms.1493
   
   for GFN2-xTB:
   * C. Bannwarth, S. Ehlert and S. Grimme., J. Chem. Theory Comput., 2019,
     15, 1652-1671. DOI: 10.1021/acs.jctc.8b01176
   for GFN1-xTB:
   * S. Grimme, C. Bannwarth, P. Shushkov, J. Chem. Theory Comput., 2017,
     13, 1989-2009. DOI: 10.1021/acs.jctc.7b00118
   for GFN0-xTB:
   * P. Pracht, E. Caldeweyher, S. Ehlert, S. Grimme, ChemRxiv, 2019, preprint.
     DOI: 10.26434/chemrxiv.8326202.v1
   for GFN-FF:
   * S. Spicher and S. Grimme, Angew. Chem. Int. Ed., 2020, 59, 15665-15673.
     DOI: 10.1002/anie.202004239
   
   for ALPB and GBSA implicit solvation:
   * S. Ehlert, M. Stahn, S. Spicher, S. Grimme, J. Chem. Theory Comput.,
     2021, 17, 4250-4261. DOI: 10.1021/acs.jctc.1c00471
   
   for DFT-D4:
   * E. Caldeweyher, C. Bannwarth and S. Grimme, J. Chem. Phys., 2017,
     147, 034112. DOI: 10.1063/1.4993215
   * E. Caldeweyher, S. Ehlert, A. Hansen, H. Neugebauer, S. Spicher,
     C. Bannwarth and S. Grimme, J. Chem. Phys., 2019, 150, 154122.
     DOI: 10.1063/1.5090222
   * E. Caldeweyher, J.-M. Mewes, S. Ehlert and S. Grimme, Phys. Chem. Chem. Phys.
     2020, 22, 8499-8512. DOI: 10.1039/D0CP00502A
   
   for sTDA-xTB:
   * S. Grimme and C. Bannwarth, J. Chem. Phys., 2016, 145, 054103.
     DOI: 10.1063/1.4959605
   
   in the mass-spec context:
   * V. Asgeirsson, C. Bauer and S. Grimme, Chem. Sci., 2017, 8, 4879.
     DOI: 10.1039/c7sc00601b
   * J. Koopman and S. Grimme, ACS Omega 2019, 4, 12, 15120-15133.
     DOI: 10.1021/acsomega.9b02011
   
   for metadynamics refer to:
   * S. Grimme, J. Chem. Theory Comput., 2019, 155, 2847-2862
     DOI: 10.1021/acs.jctc.9b00143
   
   for SPH calculations refer to:
   * S. Spicher and S. Grimme, J. Chem. Theory Comput., 2021, 17, 1701-1714
     DOI: 10.1021/acs.jctc.0c01306
   
   with help from (in alphabetical order)
   P. Atkinson, C. Bannwarth, F. Bohle, G. Brandenburg, E. Caldeweyher
   M. Checinski, S. Dohm, S. Ehlert, S. Ehrlich, I. Gerasimov, C. Hölzer
   A. Katbashev, J. Koopman, C. Lavigne, S. Lehtola, F. März, M. Müller,
   F. Musil, H. Neugebauer, J. Pisarek, C. Plett, P. Pracht, F. Pultar,
   J. Seibert, P. Shushkov, S. Spicher, M. Stahn, M. Steiner, T. Strunk,
   J. Stückrath, T. Rose, and J. Unsleber
   
 * started run on 2024/08/18 at 14:55:01.233     

           -------------------------------------------------
          |                Calculation Setup                |
           -------------------------------------------------

          program call               : xtb --spinpol --tblite BODIPY_rdkit.xyz --ohess --alpb toluene --parallel 4
          coordinate file            : BODIPY_rdkit.xyz
          omp threads                :                     4

   ID    Z sym.   atoms
    1    5 B      1
    2    7 N      2, 9
    3    6 C      3-8, 10-12
    4    9 F      13, 14
    5    1 H      15-21
repulsion energy          5.1858463748532E-01 Eh
dispersion energy         3.3081597820355E-05 Eh
interaction energy        0.0000000000000E+00 Eh
number of electrons       7.0000000000000E+01 e
integral cutoff           1.9311100799991E+01 bohr

------------------------------------------------------------
  cycle        total energy    energy error   density error
------------------------------------------------------------
      1     -39.25853045314  -3.9777148E+01   1.3990778E-01
      2     -39.44480299401  -1.8627254E-01   8.4688441E-02
      3     -39.41835138289   2.6451611E-02   4.9826765E-02
      4     -39.48017757993  -6.1826197E-02   2.4171930E-02
      5     -39.49985771210  -1.9680132E-02   9.2256774E-03
      6     -39.50073354607  -8.7583397E-04   4.3854997E-03
      7     -39.50125159700  -5.1805092E-04   1.8533612E-03
      8     -39.50133214755  -8.0550554E-05   4.9646140E-04
      9     -39.50133678884  -4.6412874E-06   2.3402474E-04
     10     -39.50133806338  -1.2745409E-06   9.2581760E-05
     11     -39.50133819530  -1.3192260E-07   3.6695077E-05
     12     -39.50133820894  -1.3643117E-08   1.7710942E-05
------------------------------------------------------------

electronic energy        -4.0019955928028E+01 Eh
total energy             -3.9501338208945E+01 Eh

 total:                                   0.074 sec
 - repulsion                              0.000 sec (  0%)
 - dispersion                             0.001 sec (  0%)
 - coulomb                                0.000 sec (  0%)
 - hamiltonian                            0.005 sec (  6%)
 - scc                                    0.068 sec ( 92%)

      ----------------------------------------------------------- 
     |                   =====================                   |
     |                        A N C O P T                        |
     |                   =====================                   |
     |               Approximate Normal Coordinate               |
     |                Rational Function Optimizer                |
      ----------------------------------------------------------- 

          ...................................................
          :                      SETUP                      :
          :.................................................:
          :   optimization level            normal          :
          :   max. optcycles                   200          :
          :   ANC micro-cycles                  20          :
          :   degrees of freedom                57          :
          :.................................................:
          :   RF solver                   davidson          :
          :   write xtbopt.log                true          :
          :   linear?                        false          :
          :   energy convergence         0.5000000E-05 Eh   :
          :   grad. convergence          0.1000000E-02 Eh/α :
          :   maxmium RF displ.          1.0000000          :
          :   Hlow (freq-cutoff)         0.1000000E-01      :
          :   Hmax (freq-cutoff)         5.0000000          :
          :   S6 in model hess.         20.0000000          :
          ...................................................

generating ANC from model Hessian ...
Using Lindh-Hessian (1995)
 Shifting diagonal of input Hessian by    6.5250128700098022E-003
 Lowest  eigenvalues of input Hessian
    0.000000    0.000000    0.000000    0.000000    0.000000    0.000000
    0.010000    0.011576    0.015781    0.021946    0.022500    0.025857
    0.027359    0.031372    0.039987    0.049782    0.050964    0.062137
 Highest eigenvalues
    1.924472    1.932594    2.005258    2.061622    2.074022    2.216266


........................................................................
.............................. CYCLE    1 ..............................
........................................................................
------------------------------------------------------------
  cycle        total energy    energy error   density error
------------------------------------------------------------
      1     -39.50133814176  -4.0019956E+01   3.6913023E-05
      2     -39.50133813166   1.0102490E-08   3.8135693E-05
      3     -39.50133821216  -8.0502382E-08   7.3952494E-06
------------------------------------------------------------

 total:                                   0.023 sec
 * total energy  :   -39.5013382 Eh     change       -0.3214801E-08 Eh
   gradient norm :     0.1819916 Eh/α   predicted     0.0000000E+00 (-100.00%)
   displ. norm   :     0.2856447 α      lambda       -0.2802625E-01
   maximum displ.:     0.1562046 α      in ANC's #16, #10, #12, ...

........................................................................
.............................. CYCLE    2 ..............................
........................................................................
------------------------------------------------------------
  cycle        total energy    energy error   density error
------------------------------------------------------------
      1     -39.51862210357  -4.0029586E+01   1.0334548E-02
      2     -39.51670998563   1.9121179E-03   1.0103565E-02
      3     -39.52184265785  -5.1326722E-03   3.8233361E-03
      4     -39.52198653893  -1.4388109E-04   1.1909502E-03
      5     -39.52201292917  -2.6390232E-05   4.3362750E-04
      6     -39.52201612965  -3.2004836E-06   1.7813715E-04
      7     -39.52201657418  -4.4452963E-07   8.5387894E-05
      8     -39.52201680360  -2.2942200E-07   3.3180620E-05
      9     -39.52201681080  -7.1992972E-09   1.4740987E-05
------------------------------------------------------------

 total:                                   0.056 sec
 * total energy  :   -39.5220168 Eh     change       -0.2067860E-01 Eh
   gradient norm :     0.0926577 Eh/α   predicted    -0.1516049E-01 ( -26.69%)
   displ. norm   :     0.2596756 α      lambda       -0.1435117E-01
   maximum displ.:     0.1348703 α      in ANC's #10, #16, #12, ...

........................................................................
.............................. CYCLE    3 ..............................
........................................................................
------------------------------------------------------------
  cycle        total energy    energy error   density error
------------------------------------------------------------
      1     -39.52597720739  -4.0047324E+01   1.0651930E-02
      2     -39.52421078660   1.7664208E-03   1.0088697E-02
      3     -39.52971490162  -5.5041150E-03   3.7967464E-03
      4     -39.52992691755  -2.1201593E-04   1.3954357E-03
      5     -39.52994166185  -1.4744302E-05   5.5166589E-04
      6     -39.52994648237  -4.8205236E-06   2.3354724E-04
      7     -39.52994742227  -9.3989949E-07   8.0391194E-05
      8     -39.52994763479  -2.1252189E-07   3.1879728E-05
      9     -39.52994764756  -1.2771771E-08   1.5217041E-05
------------------------------------------------------------

 total:                                   0.058 sec
 * total energy  :   -39.5299476 Eh     change       -0.7930837E-02 Eh
   gradient norm :     0.0249107 Eh/α   predicted    -0.7660925E-02 (  -3.40%)
   displ. norm   :     0.0640917 α      lambda       -0.7596208E-03
   maximum displ.:     0.0311161 α      in ANC's #10, #12, #17, ...

........................................................................
.............................. CYCLE    4 ..............................
........................................................................
------------------------------------------------------------
  cycle        total energy    energy error   density error
------------------------------------------------------------
      1     -39.53040995539  -4.0051282E+01   1.9058076E-03
      2     -39.53040693935   3.0160399E-06   1.3243161E-03
      3     -39.53043820436  -3.1265015E-05   9.6527085E-04
      4     -39.53046392289  -2.5718525E-05   2.6767187E-04
      5     -39.53046435486  -4.3196986E-07   1.1394857E-04
      6     -39.53046449855  -1.4369125E-07   5.3782125E-05
      7     -39.53046459534  -9.6793983E-08   1.4509873E-05
------------------------------------------------------------

 total:                                   0.046 sec
 * total energy  :   -39.5304646 Eh     change       -0.5169478E-03 Eh
   gradient norm :     0.0125074 Eh/α   predicted    -0.3820220E-03 ( -26.10%)
   displ. norm   :     0.0491300 α      lambda       -0.2645823E-03
   maximum displ.:     0.0204988 α      in ANC's #6, #12, #16, ...

........................................................................
.............................. CYCLE    5 ..............................
........................................................................
------------------------------------------------------------
  cycle        total energy    energy error   density error
------------------------------------------------------------
      1     -39.53060812785  -4.0050813E+01   1.1257652E-03
      2     -39.53061363274  -5.5048914E-06   6.7075008E-04
      3     -39.53061184640   1.7863392E-06   3.7975488E-04
      4     -39.53061388206  -2.0356544E-06   1.9136804E-04
      5     -39.53061517105  -1.2889872E-06   8.0457254E-05
      6     -39.53061534026  -1.6921817E-07   3.6042768E-05
      7     -39.53061538877  -4.8510671E-08   1.0308062E-05
------------------------------------------------------------

 total:                                   0.045 sec
 * total energy  :   -39.5306154 Eh     change       -0.1507934E-03 Eh
   gradient norm :     0.0042977 Eh/α   predicted    -0.1326255E-03 ( -12.05%)
   displ. norm   :     0.0146167 α      lambda       -0.2134839E-04
   maximum displ.:     0.0084957 α      in ANC's #6, #3, #9, ...

........................................................................
.............................. CYCLE    6 ..............................
........................................................................
------------------------------------------------------------
  cycle        total energy    energy error   density error
------------------------------------------------------------
      1     -39.53062855360  -4.0051086E+01   2.4453326E-04
      2     -39.53062846328   9.0313932E-08   1.9120897E-04
      3     -39.53062905831  -5.9502441E-07   1.2119846E-04
      4     -39.53062937377  -3.1545802E-07   3.9244618E-05
      5     -39.53062939462  -2.0849043E-08   1.7709624E-05
------------------------------------------------------------

 total:                                   0.033 sec
 * total energy  :   -39.5306294 Eh     change       -0.1400584E-04 Eh
   gradient norm :     0.0017613 Eh/α   predicted    -0.1070890E-04 ( -23.54%)
   displ. norm   :     0.0156034 α      lambda       -0.5337040E-05
   maximum displ.:     0.0102773 α      in ANC's #3, #6, #5, ...

........................................................................
.............................. CYCLE    7 ..............................
........................................................................
------------------------------------------------------------
  cycle        total energy    energy error   density error
------------------------------------------------------------
      1     -39.53063176708  -4.0051394E+01   2.4148392E-04
      2     -39.53063178650  -1.9425883E-08   1.7647829E-04
      3     -39.53063223853  -4.5202917E-07   1.1274299E-04
      4     -39.53063249918  -2.6064552E-07   4.7061498E-05
      5     -39.53063255968  -6.0503616E-08   1.3472301E-05
------------------------------------------------------------

 total:                                   0.033 sec
 * total energy  :   -39.5306326 Eh     change       -0.3165065E-05 Eh
   gradient norm :     0.0009069 Eh/α   predicted    -0.2674829E-05 ( -15.49%)
   displ. norm   :     0.0042294 α      lambda       -0.7828847E-06
   maximum displ.:     0.0035359 α      in ANC's #3, #5, #1, ...

   *** GEOMETRY OPTIMIZATION CONVERGED AFTER 7 ITERATIONS ***

------------------------------------------------------------------------
 total energy gain   :        -0.0292944 Eh      -18.3825 kcal/mol
 total RMSD          :         0.1284678 a0        0.0680 Å
 total power (kW/mol):       -10.9874725 (step) -253.1115 (real)
------------------------------------------------------------------------

 ANCopt (total)                0 d,  0 h,  0 min,  0.304 sec
 optimizer setup                ...        0 min,  0.000 sec (  0.084%)
 model hessian                  ...        0 min,  0.004 sec (  1.350%)
 ANC generation                 ...        0 min,  0.001 sec (  0.193%)
 coordinate transformation      ...        0 min,  0.000 sec (  0.029%)
 single point calculation       ...        0 min,  0.295 sec ( 97.082%)
 optimization log               ...        0 min,  0.002 sec (  0.799%)
 hessian update                 ...        0 min,  0.000 sec (  0.042%)
 rational function              ...        0 min,  0.001 sec (  0.227%)

================
 final structure:
================
21
 xtb: 6.6.1 (8d0f1dd)
B           -0.03659149469124       -1.51444458763210       -0.01335725024619
N           -1.26049485698872       -0.56197938478054       -0.00004265146129
C           -2.54055450539556       -0.90947414168968        0.00367018745836
C           -3.35212095262342        0.23433402515296        0.00524501909267
C           -2.50880007412350        1.32137132618386        0.00164150277235
C           -1.18578407412023        0.81558672504091       -0.00150231242173
C            0.03573506684040        1.46889456547583       -0.00235711601411
C            1.22386218243934        0.75705213889848        0.00018986814404
N            1.23163361662964       -0.62261535512241        0.00183399264110
C            2.49323804436591       -1.03176112734894        0.00667894313369
C            3.35941074501044        0.07134090549374        0.00902895353225
C            2.57034271853568        1.19808424271974        0.00454350538626
F           -0.05433311568712       -2.28106588182643       -1.15653455734654
F           -0.05735805102660       -2.32016151754182        1.10205013856777
H           -2.83003611728069       -1.94278827051189        0.00539095335516
H           -4.42400002473944        0.23945755320651        0.00854863737263
H           -2.77381120252272        2.36045238213188        0.00170430421334
H            0.06184240721178        2.54814071513536       -0.00353948158109
H            2.73173506605595       -2.07794896374174        0.00873740206216
H            4.43025313815136        0.02457495163710        0.01324025499144
H            2.88583248395874        2.22294969911918        0.00482970634775

 Bond Distances (Angstroems)
 ---------------------------
B1-N2=1.5509         B1-N9=1.5505         B1-F13=1.3765        B1-F14=1.3761        N2-B1=1.5509         N2-C3=1.3264         
N2-C6=1.3796         C3-N2=1.3264         C3-C4=1.4025         C3-H15=1.0731        C4-C3=1.4025         C4-C5=1.3758         
C4-H16=1.0719        C5-C4=1.3758         C5-C6=1.4164         C5-H17=1.0723        C6-N2=1.3796         C6-C5=1.4164         
C6-C7=1.3853         C7-C6=1.3853         C7-C8=1.3851         C7-H18=1.0796        C8-C7=1.3851         C8-N9=1.3797         
C8-C12=1.4169        N9-B1=1.5505         N9-C8=1.3797         N9-C10=1.3263        C10-N9=1.3263        C10-C11=1.4025       
C10-H19=1.0730       C11-C10=1.4025       C11-C12=1.3756       C11-H20=1.0719       C12-C8=1.4169        C12-C11=1.3756       
C12-H21=1.0723       F13-B1=1.3765        F14-B1=1.3761        H15-C3=1.0731        H16-C4=1.0719        H17-C5=1.0723        
H18-C7=1.0796        H19-C10=1.0730       H20-C11=1.0719       H21-C12=1.0723       
 C  H  Rav=1.0734 sigma=0.0025  Rmin=1.0719  Rmax=1.0796     7
 C  C  Rav=1.3950 sigma=0.0158  Rmin=1.3756  Rmax=1.4169     8
 N  B  Rav=1.5507 sigma=0.0002  Rmin=1.5505  Rmax=1.5509     2
 N  C  Rav=1.3530 sigma=0.0266  Rmin=1.3263  Rmax=1.3797     4
 F  B  Rav=1.3763 sigma=0.0002  Rmin=1.3761  Rmax=1.3765     2

 selected bond angles (degree)
 --------------------
N9-B1-N2=106.99                F13-B1-N2=109.81               F13-B1-N9=109.82               F14-B1-N2=109.92               
F14-B1-N9=109.95               F14-B1-F13=110.30              C3-N2-B1=126.92                C6-N2-B1=124.78                
C6-N2-C3=108.29                C4-C3-N2=110.17                H15-C3-N2=120.84               H15-C3-C4=128.99               
C5-C4-C3=106.84                H16-C4-C3=125.63               H16-C4-C5=127.53               C6-C5-C4=106.88                
H17-C5-C4=127.89               H17-C5-C6=125.23               C5-C6-N2=107.82                C7-C6-N2=121.24                
C7-C6-C5=130.94                C8-C7-C6=120.93                H18-C7-C6=119.53               H18-C7-C8=119.54               
N9-C8-C7=121.25                C12-C8-C7=130.94               C12-C8-N9=107.81               C8-N9-B1=124.79                
C10-N9-B1=126.92               C10-N9-C8=108.29               C11-C10-N9=110.17              H19-C10-N9=120.81              
H19-C10-C11=129.02             

 selected dihedral angles (degree)
 ---------------------------------
C3-N2-B1-N9=180.57            C3-N2-B1-F13= 61.43           C3-N2-B1-F14=299.92           C6-N2-B1-N9=  1.15            
C6-N2-B1-F13=242.02           C6-N2-B1-F14=120.50           C4-C3-N2-B1=180.49            C4-C3-N2-C6=  0.00            
H15-C3-N2-B1=  0.51           H15-C3-N2-C6=180.00           C5-C4-C3-N2=  0.03            C5-C4-C3-H15=180.01           
H16-C4-C3-N2=180.02           H16-C4-C3-H15=  0.00          C6-C5-C4-C3=359.97            C6-C5-C4-H16=179.98           
H17-C5-C4-C3=180.01           H17-C5-C4-H16=  0.00          C5-C6-N2-B1=179.51            C5-C6-N2-C3=  0.00            
C7-C6-N2-B1=359.36            C7-C6-N2-C3=179.86            N2-C6-C5-C4=  0.00            N2-C6-C5-H17=179.98           
C7-C6-C5-C4=180.18            C7-C6-C5-H17=  0.15           C8-C7-C6-N2=359.91            C8-C7-C6-C5=179.72            
H18-C7-C6-N2=180.00           H18-C7-C6-C5=359.81           N9-C8-C7-C6=  0.09            N9-C8-C7-H18=180.00           
C12-C8-C7-C6=180.25           C12-C8-C7-H18=  0.15          C8-N9-B1-N2=358.84            C8-N9-B1-F13=117.97           
C8-N9-B1-F14=239.51           C10-N9-B1-N2=179.47           C10-N9-B1-F13=298.61          C10-N9-B1-F14= 60.14          
B1-N9-C8-C7=  0.65            B1-N9-C8-C12=180.52           C10-N9-C8-C7=180.12           C10-N9-C8-C12=  0.00          
C11-C10-N9-B1=179.48          C11-C10-N9-C8=  0.03          H19-C10-N9-B1=359.45          H19-C10-N9-C8=180.00          
           -------------------------------------------------
          |                Final Singlepoint                |
           -------------------------------------------------
repulsion energy          5.2072428000554E-01 Eh
dispersion energy         3.8396936002317E-05 Eh
interaction energy        0.0000000000000E+00 Eh
number of electrons       7.0000000000000E+01 e
integral cutoff           1.9311100799991E+01 bohr

------------------------------------------------------------
  cycle        total energy    energy error   density error
------------------------------------------------------------
      1     -39.53063246935  -4.0051395E+01   4.3943637E-05
      2     -39.53063245583   1.3517415E-08   4.5900883E-05
      3     -39.53063256432  -1.0849094E-07   5.4058407E-06
------------------------------------------------------------

electronic energy        -4.0051395241266E+01 Eh
total energy             -3.9530632564325E+01 Eh

 total:                                   0.022 sec
 - repulsion                              0.000 sec (  0%)
 - dispersion                             0.000 sec (  1%)
 - coulomb                                0.000 sec (  1%)
 - hamiltonian                            0.004 sec ( 18%)
 - scc                                    0.017 sec ( 77%)

           ------------------------------------------------- 
          |                Numerical Hessian                |
           ------------------------------------------------- 
step length          :   0.00500
SCC accuracy         :   0.30000
Hessian scale factor :   1.00000
frozen atoms in %    :   0.00000    0
RMS gradient         :   0.00091
estimated CPU  time      0.15 min
estimated wall time      0.03 min

writing file <hessian>.

 projected vibrational frequencies (cm⁻¹)
eigval :       -0.00    -0.00    -0.00     0.00     0.00     0.00
eigval :       39.57   107.70   120.82   172.27   233.09   251.13
eigval :      300.42   322.80   349.35   385.98   417.20   446.82
eigval :      557.74   561.30   570.45   639.45   679.33   686.25
eigval :      772.80   795.41   796.82   813.48   833.12   844.53
eigval :      845.81   847.28   861.94   873.06   890.19   952.58
eigval :     1022.89  1031.91  1033.92  1072.17  1078.18  1123.54
eigval :     1138.39  1140.46  1164.72  1227.39  1329.40  1352.26
eigval :     1353.41  1368.66  1377.17  1420.16  1499.95  1500.74
eigval :     1543.43  1593.09  3098.32  3161.26  3161.78  3165.24
eigval :     3165.78  3178.42  3178.68
           -------------------------------------------------
          |                Property Printout                |
           -------------------------------------------------
           -------------------------------------------------
          |                Geometry Summary                 |
           -------------------------------------------------

      molecular mass/u    :      191.9734491
   center of mass at/Å    :       -0.0088279      -0.3637587      -0.0041106
  moments of inertia/u·Å² :        0.3864259E+03   0.7761223E+03   0.1065588E+04
rotational constants/cm⁻¹ :        0.4362449E-01   0.2172033E-01   0.1582003E-01

 * 23 selected distances

     #   Z          #   Z                                           value/Å
     1   5 B        2   7 N                                       1.5509053 (max)
     2   7 N        3   6 C                                       1.3263934
     3   6 C        4   6 C                                       1.4024764
     4   6 C        5   6 C                                       1.3758101
     2   7 N        6   6 C                                       1.3795915
     5   6 C        6   6 C                                       1.4164038
     6   6 C        7   6 C                                       1.3852513
     7   6 C        8   6 C                                       1.3850533
     1   5 B        9   7 N                                       1.5504791
     8   6 C        9   7 N                                       1.3796905
     9   7 N       10   6 C                                       1.3262993
    10   6 C       11   6 C                                       1.4025317
     8   6 C       12   6 C                                       1.4168763
    11   6 C       12   6 C                                       1.3755724
     1   5 B       13   9 F                                       1.3765456
     1   5 B       14   9 F                                       1.3761341
     3   6 C       15   1 H                                       1.0730987
     4   6 C       16   1 H                                       1.0718965
     5   6 C       17   1 H                                       1.0723435
     7   6 C       18   1 H                                       1.0795626
    10   6 C       19   1 H                                       1.0730304
    11   6 C       20   1 H                                       1.0718715 (min)
    12   6 C       21   1 H                                       1.0723261

 * 5 distinct bonds (by element types)

   Z      Z             #   av. dist./Å        max./Å        min./Å
   1 H    6 C           7     1.0734470     1.0795626     1.0718715
   6 C    6 C           8     1.3949969     1.4168763     1.3755724
   5 B    7 N           2     1.5506922     1.5509053     1.5504791
   6 C    7 N           4     1.3529937     1.3796905     1.3262993
   5 B    9 F           2     1.3763398     1.3765456     1.3761341

           -------------------------------------------------
          |               Frequency Printout                |
           -------------------------------------------------
 projected vibrational frequencies (cm⁻¹)
eigval :       -0.00    -0.00    -0.00     0.00     0.00     0.00
eigval :       39.57   107.70   120.82   172.27   233.09   251.13
eigval :      300.42   322.80   349.35   385.98   417.20   446.82
eigval :      557.74   561.30   570.45   639.45   679.33   686.25
eigval :      772.80   795.41   796.82   813.48   833.12   844.53
eigval :      845.81   847.28   861.94   873.06   890.19   952.58
eigval :     1022.89  1031.91  1033.92  1072.17  1078.18  1123.54
eigval :     1138.39  1140.46  1164.72  1227.39  1329.40  1352.26
eigval :     1353.41  1368.66  1377.17  1420.16  1499.95  1500.74
eigval :     1543.43  1593.09  3098.32  3161.26  3161.78  3165.24
eigval :     3165.78  3178.42  3178.68
 reduced masses (amu)
   1: 13.63   2: 12.25   3: 13.36   4: 13.91   5: 12.36   6: 12.26   7: 12.74   8: 12.75
   9: 13.97  10: 12.24  11: 15.18  12: 13.09  13: 14.25  14: 13.89  15: 10.42  16: 12.23
  17: 13.19  18: 13.85  19:  9.27  20: 15.55  21:  9.48  22: 11.90  23: 12.30  24: 11.09
  25: 11.19  26:  3.29  27:  3.55  28: 11.11  29:  4.66  30:  3.76  31:  3.72  32:  3.45
  33: 11.28  34:  3.59  35:  9.97  36: 12.18  37:  4.55  38:  8.66  39:  9.83  40:  2.44
  41:  3.09  42:  4.82  43:  8.27  44:  9.79  45:  3.79  46:  6.03  47: 12.06  48: 11.22
  49: 11.89  50: 10.62  51: 10.06  52: 11.88  53: 11.90  54: 11.39  55: 11.69  56: 11.83
  57:  1.84  58:  1.82  59:  1.81  60:  1.87  61:  1.87  62:  1.98  63:  1.98
 IR intensities (km·mol⁻¹)
   1:  0.46   2:  0.20   3:  4.96   4:  0.68   5:  0.85   6:  1.58   7:  2.69   8:  0.00
   9:  0.00  10:  0.00  11:  3.48  12:  4.21  13: 10.02  14:  0.00  15:  1.31  16: 12.43
  17:  3.75  18:  8.42  19:  9.35  20:  4.10  21:  0.00  22:  0.00  23:  2.32  24:  9.14
  25:  1.44  26: 37.44  27:  0.03  28:  8.71  29:  1.80  30:  0.00  31:  0.00  32:  3.71
  33:  4.34  34:  5.19  35: 27.48  36:181.98  37:  2.33  38:214.34  39:260.04  40: 77.97
  41: 21.66  42: 67.93  43:170.28  44: 37.58  45:  1.09  46: 87.09  47:408.00  48: 42.35
  49: 23.57  50:  5.55  51: 52.26  52: 82.08  53: 15.27  54: 20.91  55:  3.67  56:552.45
  57:  3.35  58:  2.62  59:  1.43  60:  5.10  61:  6.81  62: 34.71  63: 31.95
 Raman intensities (amu)
   1:  0.00   2:  0.00   3:  0.00   4:  0.00   5:  0.00   6:  0.00   7:  0.00   8:  0.00
   9:  0.00  10:  0.00  11:  0.00  12:  0.00  13:  0.00  14:  0.00  15:  0.00  16:  0.00
  17:  0.00  18:  0.00  19:  0.00  20:  0.00  21:  0.00  22:  0.00  23:  0.00  24:  0.00
  25:  0.00  26:  0.00  27:  0.00  28:  0.00  29:  0.00  30:  0.00  31:  0.00  32:  0.00
  33:  0.00  34:  0.00  35:  0.00  36:  0.00  37:  0.00  38:  0.00  39:  0.00  40:  0.00
  41:  0.00  42:  0.00  43:  0.00  44:  0.00  45:  0.00  46:  0.00  47:  0.00  48:  0.00
  49:  0.00  50:  0.00  51:  0.00  52:  0.00  53:  0.00  54:  0.00  55:  0.00  56:  0.00
Molecule has the following symmetry elements: (C2) 2*(sigma) 
It seems to be the C2v point group
  57:  0.00  58:  0.00  59:  0.00  60:  0.00  61:  0.00  62:  0.00  63:  0.00
 output can be read by thermo (or use thermo option).
 writing <g98.out> molden fake output.
 recommended (thermochemical) frequency scaling factor: 1.0
           -------------------------------------------------
          |             Thermodynamic Functions             |
           -------------------------------------------------

c2v symmetry found (for desy threshold:  0.10E+00) used in thermo

          ...................................................
          :                      SETUP                      :
          :.................................................:
          :  # frequencies                          57      :
          :  # imaginary freq.                       0      :
          :  linear?                             false      :
          :  only rotor calc.                    false      :
          :  symmetry                              c2v      :
          :  rotational number                       2      :
          :  scaling factor                  1.0000000      :
          :  rotor cutoff                   50.0000000 cm⁻¹ :
          :  imag. cutoff                  -20.0000000 cm⁻¹ :
          :.................................................:

    mode    ω/cm⁻¹     T·S(HO)/kcal·mol⁻¹    T·S(FR)/kcal·mol⁻¹   T·S(vib)
   ------------------------------------------------------------------------
       1     39.57    -1.57442 ( 28.17%)    -1.12571 ( 71.83%)    -1.25211
       2    107.70    -0.98684 ( 95.56%)    -0.82916 (  4.44%)    -0.97984
       3    120.82    -0.92044 ( 97.15%)    -0.79512 (  2.85%)    -0.91687
       4    172.27    -0.71873 ( 99.30%)    -0.69006 (  0.70%)    -0.71853
       5    233.09    -0.55307 ( 99.79%)    -0.60048 (  0.21%)    -0.55317
       6    251.13    -0.51361 ( 99.84%)    -0.57841 (  0.16%)    -0.51371
   ------------------------------------------------------------------------

   temp. (K)  partition function   enthalpy   heat capacity  entropy
                                   cal/mol     cal/K/mol   cal/K/mol   J/K/mol
 298.15  VIB   687.                 5011.454     36.490     28.674
         ROT  0.683E+06              888.752      2.981     29.678
         INT  0.469E+09             5900.206     39.471     58.351
         TR   0.257E+28             1481.254      4.968     41.643
         TOT                        7381.4602    44.4388    99.9945   418.3768

       T/K    H(0)-H(T)+PV         H(T)/Eh          T*S/Eh         G(T)/Eh
   ------------------------------------------------------------------------
    298.15    0.117631E-01    0.158591E+00    0.475106E-01    0.111080E+00
   ------------------------------------------------------------------------

         :::::::::::::::::::::::::::::::::::::::::::::::::::::
         ::                  THERMODYNAMIC                  ::
         :::::::::::::::::::::::::::::::::::::::::::::::::::::
         :: total free energy         -39.419552076297 Eh   ::
         ::.................................................::
         :: total energy              -39.530632565785 Eh   ::
         :: zero point energy           0.146827973983 Eh   ::
         :: G(RRHO) w/o ZPVE           -0.035747484495 Eh   ::
         :: G(RRHO) contrib.            0.111080489488 Eh   ::
         :::::::::::::::::::::::::::::::::::::::::::::::::::::

optimized geometry written to: xtbopt.xyz


           -------------------------------------------------
          | TOTAL ENERGY              -39.530632565785 Eh   |
          | TOTAL ENTHALPY            -39.372041486231 Eh   |
          | TOTAL FREE ENERGY         -39.419552076297 Eh   |
          | GRADIENT NORM               0.000908205075 Eh/α |
           -------------------------------------------------

------------------------------------------------------------------------
 * finished run on 2024/08/18 at 14:55:03.011     
------------------------------------------------------------------------
 total:
 * wall-time:     0 d,  0 h,  0 min,  1.778 sec
 *  cpu-time:     0 d,  0 h,  0 min, 11.125 sec
 * ratio c/w:     6.257 speedup
 SCF:
 * wall-time:     0 d,  0 h,  0 min,  0.074 sec
 *  cpu-time:     0 d,  0 h,  0 min,  0.517 sec
 * ratio c/w:     7.007 speedup
 ANC optimizer:
 * wall-time:     0 d,  0 h,  0 min,  0.328 sec
 *  cpu-time:     0 d,  0 h,  0 min,  2.286 sec
 * ratio c/w:     6.980 speedup
 analytical hessian:
 * wall-time:     0 d,  0 h,  0 min,  1.365 sec
 *  cpu-time:     0 d,  0 h,  0 min,  8.268 sec
 * ratio c/w:     6.058 speedup

