[Molden Format]
made by pyscf v[2.5.0]
[Atoms] (AU)
C   1   6     0.00000000000000     2.64315413040236     0.00000000000000
C   2   6     0.00000000000000    -2.64315413040236     0.00000000000000
C   3   6     2.28895975518325     1.32154211094272     0.00000000000000
C   4   6     2.28895975518325    -1.32154211094272     0.00000000000000
C   5   6    -2.28895975518325     1.32154211094272     0.00000000000000
C   6   6    -2.28895975518325    -1.32154211094272     0.00000000000000
H   7   1     0.00000000000000     4.70807679416612     0.00000000000000
H   8   1     0.00000000000000    -4.70807679416612     0.00000000000000
H   9   1     4.07726833715668     2.35395711813507     0.00000000000000
H   10   1     4.07726833715668    -2.35395711813507     0.00000000000000
H   11   1    -4.07726833715668     2.35395711813507     0.00000000000000
H   12   1    -4.07726833715668    -2.35395711813507     0.00000000000000
[GTO]
1 0
 s    6 1.00
             3047.5249  0.0018347001629433
             457.36951    0.01403730124668
             103.94869   0.068842606114048
             29.210155    0.23218442062076
              9.286663    0.46794134155879
              3.163927    0.36231203217765
 s    3 1.00
             7.8682724   -0.11933240861517
             1.8812885   -0.16085421161283
             0.5442493     1.1434564825515
 s    1 1.00
             0.1687144                   1
 p    3 1.00
             7.8682724   0.068999095584993
             1.8812885    0.31642397975315
             0.5442493    0.74430825237435
 p    1 1.00
             0.1687144                   1

2 0
 s    6 1.00
             3047.5249  0.0018347001629433
             457.36951    0.01403730124668
             103.94869   0.068842606114048
             29.210155    0.23218442062076
              9.286663    0.46794134155879
              3.163927    0.36231203217765
 s    3 1.00
             7.8682724   -0.11933240861517
             1.8812885   -0.16085421161283
             0.5442493     1.1434564825515
 s    1 1.00
             0.1687144                   1
 p    3 1.00
             7.8682724   0.068999095584993
             1.8812885    0.31642397975315
             0.5442493    0.74430825237435
 p    1 1.00
             0.1687144                   1

3 0
 s    6 1.00
             3047.5249  0.0018347001629433
             457.36951    0.01403730124668
             103.94869   0.068842606114048
             29.210155    0.23218442062076
              9.286663    0.46794134155879
              3.163927    0.36231203217765
 s    3 1.00
             7.8682724   -0.11933240861517
             1.8812885   -0.16085421161283
             0.5442493     1.1434564825515
 s    1 1.00
             0.1687144                   1
 p    3 1.00
             7.8682724   0.068999095584993
             1.8812885    0.31642397975315
             0.5442493    0.74430825237435
 p    1 1.00
             0.1687144                   1

4 0
 s    6 1.00
             3047.5249  0.0018347001629433
             457.36951    0.01403730124668
             103.94869   0.068842606114048
             29.210155    0.23218442062076
              9.286663    0.46794134155879
              3.163927    0.36231203217765
 s    3 1.00
             7.8682724   -0.11933240861517
             1.8812885   -0.16085421161283
             0.5442493     1.1434564825515
 s    1 1.00
             0.1687144                   1
 p    3 1.00
             7.8682724   0.068999095584993
             1.8812885    0.31642397975315
             0.5442493    0.74430825237435
 p    1 1.00
             0.1687144                   1

5 0
 s    6 1.00
             3047.5249  0.0018347001629433
             457.36951    0.01403730124668
             103.94869   0.068842606114048
             29.210155    0.23218442062076
              9.286663    0.46794134155879
              3.163927    0.36231203217765
 s    3 1.00
             7.8682724   -0.11933240861517
             1.8812885   -0.16085421161283
             0.5442493     1.1434564825515
 s    1 1.00
             0.1687144                   1
 p    3 1.00
             7.8682724   0.068999095584993
             1.8812885    0.31642397975315
             0.5442493    0.74430825237435
 p    1 1.00
             0.1687144                   1

6 0
 s    6 1.00
             3047.5249  0.0018347001629433
             457.36951    0.01403730124668
             103.94869   0.068842606114048
             29.210155    0.23218442062076
              9.286663    0.46794134155879
              3.163927    0.36231203217765
 s    3 1.00
             7.8682724   -0.11933240861517
             1.8812885   -0.16085421161283
             0.5442493     1.1434564825515
 s    1 1.00
             0.1687144                   1
 p    3 1.00
             7.8682724   0.068999095584993
             1.8812885    0.31642397975315
             0.5442493    0.74430825237435
 p    1 1.00
             0.1687144                   1

7 0
 s    3 1.00
             18.731137    0.03349459952309
             2.8253937    0.23472694665786
             0.6401217    0.81375731841339
 s    1 1.00
             0.1612778                   1

8 0
 s    3 1.00
             18.731137    0.03349459952309
             2.8253937    0.23472694665786
             0.6401217    0.81375731841339
 s    1 1.00
             0.1612778                   1

9 0
 s    3 1.00
             18.731137    0.03349459952309
             2.8253937    0.23472694665786
             0.6401217    0.81375731841339
 s    1 1.00
             0.1612778                   1

10 0
 s    3 1.00
             18.731137    0.03349459952309
             2.8253937    0.23472694665786
             0.6401217    0.81375731841339
 s    1 1.00
             0.1612778                   1

11 0
 s    3 1.00
             18.731137    0.03349459952309
             2.8253937    0.23472694665786
             0.6401217    0.81375731841339
 s    1 1.00
             0.1612778                   1

12 0
 s    3 1.00
             18.731137    0.03349459952309
             2.8253937    0.23472694665786
             0.6401217    0.81375731841339
 s    1 1.00
             0.1612778                   1

[5d]
[7f]
[9g]

[MO]
 Sym= A
 Ene=               0
 Spin= Alpha
 Occup=    1.00000
   1    1.4984249924268e-17
   2    -8.1892305135861e-18
   3    7.1314163189976e-16
   4    -1.2185775669974e-16
   5    8.080220050082e-17
   6    2.3297120542741e-05
   7    1.5100148821195e-15
   8    -6.8302517303613e-16
   9    2.6748323722576e-05
  10    -5.1894768819886e-17
  11    8.3286388241693e-17
  12    4.3878901836553e-16
  13    -2.9120751070205e-16
  14    -2.4310032926098e-16
  15    2.3289869046275e-05
  16    5.9433412392542e-16
  17    2.8284947356298e-17
  18    2.6742108668574e-05
  19    5.1687210270092e-18
  20    3.391439672251e-16
  21    -1.7348878847906e-15
  22    9.2124359843787e-17
  23    1.4055104844086e-16
  24      0.27433036198821
  25    1.1634655503056e-15
  26    -6.5668828546127e-16
  27      0.23511166165785
  28    1.2901060148203e-16
  29    -2.5663392114025e-16
  30    -1.8296890322408e-15
  31    3.6478973443878e-16
  32    -1.0525892310141e-16
  33      0.27433035836265
  34    -9.0994001364755e-16
  35    7.9568377551281e-16
  36      0.23511165855066
  37    1.1081859971118e-17
  38    -1.0417775095887e-16
  39    7.0371419623904e-17
  40     3.18661341738e-16
  41    -1.4702569581937e-16
  42     -0.27430999861193
  43    -3.7201450285907e-16
  44    1.475512538606e-15
  45     -0.23511098545153
  46    -1.0532765412691e-16
  47    2.3450974260683e-16
  48    1.8015776312099e-15
  49    2.761121115267e-16
  50    -2.5846852540492e-18
  51     -0.27431000223784
  52    -3.0753675055685e-17
  53     4.45984780004e-16
  54      -0.2351109885594
  55    -6.1187488641939e-17
  56    4.0255397975205e-16
  57    -1.7790275810053e-16
  58    -4.2994122606563e-16
  59    2.6899554251459e-16
  60    -2.2823085722691e-16
  61    2.0481284660272e-16
  62    1.7331098662398e-15
  63    -1.332177317997e-16
  64    -6.3365980057622e-16
  65    -1.8946696104271e-16
  66    -4.6507081090909e-16
 Sym= A
 Ene=               1
 Spin= Alpha
 Occup=    1.00000
   1    -1.0725072898646e-17
   2    1.0281581800541e-16
   3    4.4752608422435e-17
   4    -5.2590794226327e-16
   5    -6.0044782533437e-16
   6     0.056381330709529
   7    1.5751733716047e-16
   8    3.8739757888954e-16
   9     0.065345370333676
  10    -6.6980667680396e-17
  11    -6.0347673022433e-16
  12    1.4332605574576e-15
  13    3.876533159146e-16
  14    5.0113771131052e-16
  15     0.056381330709492
  16    1.8975463095965e-15
  17    3.3013024011086e-16
  18     0.065345370333645
  19    -8.2773178824369e-17
  20    4.9362960444911e-16
  21    -1.2147762537819e-15
  22    -1.9024679589624e-16
  23    -1.3279154360839e-16
  24       0.2942728601017
  25    -2.6606688135077e-16
  26    8.3575243275967e-16
  27      0.23099793351614
  28    5.9435495706457e-17
  29    -3.9274142692226e-16
  30    -5.9312942346172e-16
  31    -1.8180329174342e-16
  32    -1.841390680262e-16
  33      0.29427286010168
  34    9.0047051221777e-16
  35    1.4201833068984e-15
  36      0.23099793351613
  37    1.3717557075476e-16
  38    -3.3586515800193e-16
  39    3.5526697111863e-16
  40    -3.5007388570652e-17
  41    9.8531937547686e-16
  42      -0.2464139116097
  43    -1.7592585759637e-16
  44    2.2769187833167e-16
  45     -0.23122797786691
  46    -7.4109516628848e-18
  47    -1.1108926772891e-16
  48    1.1742324938869e-15
  49    -8.6762044811852e-17
  50    -8.8045285757329e-16
  51     -0.24641391160972
  52    7.1750427658568e-16
  53    -1.2651404139805e-15
  54     -0.23122797786692
  55    -2.9371554892632e-16
  56    -8.2154016309291e-16
  57    -5.4451521770709e-16
  58    -6.9359521760552e-16
  59    1.6770559366539e-16
  60    4.6867930071593e-16
  61    3.6739339433089e-17
  62    -2.9248672528491e-17
  63    2.9023160458438e-16
  64    8.269539703078e-17
  65    1.4436767203702e-16
  66    5.5513940916857e-16
 Sym= A
 Ene=               2
 Spin= Alpha
 Occup=    1.00000
   1    2.8487045715318e-17
   2    3.0048365648971e-17
   3    -8.5420319894205e-16
   4    1.1390748671461e-17
   5    1.5792114632541e-16
   6      0.10589789386812
   7    7.5223522809269e-16
   8    2.8801161074371e-16
   9      0.12446392627649
  10    -8.54806840692e-17
  11    3.1156378463244e-16
  12    9.3451272746774e-16
  13    2.6618558443974e-16
  14    5.2363554395322e-16
  15      0.10589789386818
  16    2.0669054732039e-17
  17    2.6691739911255e-16
  18      0.12446392627654
  19    -6.5736411290832e-17
  20    -4.2671609884133e-18
  21    1.1800521538754e-15
  22    -5.4876277301869e-17
  23    3.1831207491853e-16
  24       0.3026894596622
  25    5.8556285116444e-16
  26    -3.2557897138452e-16
  27      0.21811659085924
  28    1.6723784901669e-17
  29    4.4655219371304e-16
  30    -1.1392484525219e-15
  31    -3.4337427291348e-16
  32    -1.4436184710329e-16
  33      0.30268945966222
  34    -2.0666557175812e-16
  35    -5.9238079909093e-16
  36      0.21811659085927
  37    2.1610645840436e-17
  38    7.0325141967258e-17
  39    -2.9631223910987e-16
  40    -4.9613271548911e-16
  41    6.3136100225787e-17
  42     -0.21845890428299
  43    6.4911576437244e-16
  44    1.6427270605546e-15
  45     -0.22430788251314
  46    2.7364008505109e-17
  47    7.7002842057906e-17
  48    3.9314761410711e-16
  49    -3.5494195916605e-16
  50    -2.2291330401772e-16
  51     -0.21845890428295
  52    -1.775159862728e-16
  53    1.000481314062e-15
  54     -0.22430788251309
  55    1.1140287288033e-16
  56    -2.1192668531952e-16
  57    -6.2164917353863e-16
  58    -6.8839246218392e-16
  59    6.2330246399999e-18
  60    -4.5086787782393e-16
  61    -1.16739624828e-16
  62    -5.2461537058224e-16
  63    1.9698916331345e-16
  64    1.6741200410872e-16
  65    3.3919658010664e-16
  66    8.3270911375285e-16
 Sym= A
 Ene=               3
 Spin= Alpha
 Occup=    1.00000
   1    7.6116924407432e-17
   2    -3.7411082040137e-17
   3    -1.6789872510254e-15
   4    1.997661686468e-16
   5    1.7422519776554e-16
   6      0.14671649251319
   7    -1.6815090354424e-15
   8    1.1169768453191e-15
   9      0.17522702939266
  10    -1.477419413577e-16
  11    4.9198067467947e-16
  12    -1.0113540683712e-15
  13     4.00451048509e-16
  14    5.9182089687686e-16
  15      0.14671649251319
  16    8.4055964604867e-16
  17    -4.132658991712e-16
  18      0.17522702939263
  19    -2.3161201826728e-17
  20    -4.6811411960349e-16
  21    1.7845674244269e-15
  22    9.1763409793034e-16
  23    1.1651839623361e-15
  24      0.30184166602942
  25    -2.1548876758059e-16
  26    1.6264258524601e-15
  27      0.19959011449502
  28    4.8129317730333e-17
  29    -5.5966481865785e-16
  30    1.2338590248617e-15
  31    -7.1332929041715e-16
  32    -3.8078870662505e-16
  33       0.3018416660294
  34    5.7313421217035e-16
  35    -4.2402163628659e-18
  36      0.19959011449504
  37    8.8548619261449e-17
  38    6.8835278994649e-17
  39    -2.3153513402876e-15
  40    4.7108894981444e-16
  41    -5.387680945368e-17
  42     -0.19544290573566
  43    2.4133714284088e-15
  44    -1.6736655157733e-15
  45     -0.21835489871889
  46    9.0882805399376e-17
  47    -2.7840372462612e-16
  48    -2.4928671792673e-16
  49    8.4801294022604e-17
  50    1.589380531251e-16
  51     -0.19544290573566
  52    1.270238129993e-15
  53    -4.1670100159969e-16
  54     -0.21835489871887
  55    1.6160756363813e-16
  56    -7.5064819921181e-16
  57    -4.9435071597307e-18
  58    -3.5195685908729e-16
  59    8.9566193626281e-16
  60    5.6809471331275e-16
  61    6.893762336405e-17
  62    -4.2108608883722e-16
  63    2.7217971365188e-16
  64    4.0124524105936e-15
  65    -2.210265239688e-17
  66    1.4186896012086e-15
 Sym= A
 Ene=               4
 Spin= Alpha
 Occup=    1.00000
   1    3.6320132203486e-17
   2    -1.048826947008e-16
   3    1.2530408112086e-15
   4    2.1340608210792e-16
   5    -5.3242406776773e-17
   6      0.17998005001448
   7    3.9417260389156e-15
   8    -3.4903187628138e-15
   9      0.21780607578293
  10    -2.2945170566452e-16
  11    9.1303639169096e-16
  12    -2.86571479855e-15
  13    2.8798830705371e-16
  14    -4.9861451350126e-16
  15      0.17998005001449
  16    5.4203038632807e-15
  17    1.5844078192653e-15
  18      0.21780607578295
  19    -2.6855775482062e-16
  20    6.3652132457062e-16
  21    -2.2388477700229e-15
  22    -5.8527069549902e-16
  23    1.1798082210165e-16
  24      0.29547574409448
  25    8.3023613636681e-16
  26    -8.7397969250478e-16
  27      0.17886044920381
  28    -6.1825405398893e-17
  29    3.6599871237648e-16
  30    -3.9353117112295e-15
  31    -3.2574915492146e-16
  32    1.9510010284389e-16
  33      0.29547574409448
  34    -6.99893144165e-16
  35    1.2665138145465e-15
  36       0.1788604492038
  37    -1.1028076951403e-15
  38    9.0227494786421e-16
  39    2.073406921066e-14
  40    -2.6310269889735e-15
  41    1.5076551695196e-15
  42     -0.17806108646459
  43    -1.3038174900963e-14
  44    1.1174765592766e-14
  45     -0.21437270535703
  46    -8.378908400526e-16
  47    3.3293187682651e-16
  48    2.0867655625008e-14
  49    -1.9758323311061e-15
  50    -1.1766376289339e-15
  51     -0.17806108646459
  52    -4.8742992092371e-15
  53    -7.9861248926312e-15
  54     -0.21437270535704
  55    -4.1577602790508e-16
  56    -3.3035989311624e-18
  57    -1.3592741865977e-16
  58    -2.0736955286123e-16
  59    -2.8755251009832e-16
  60    -3.4391456208056e-16
  61    4.2133043161591e-16
  62    1.3300372756616e-15
  63    3.4641149003945e-16
  64    -2.9356744266229e-14
  65    2.7015823113478e-16
  66    -2.0108383043217e-14
 Sym= A
 Ene=               5
 Spin= Alpha
 Occup=    1.00000
   1    -5.9129868499036e-17
   2    2.3362388938507e-18
   3    7.1213013837442e-16
   4    6.0264855325569e-16
   5     8.67925695019e-17
   6      0.20691852637782
   7    1.0175322740114e-15
   8    -2.4719457300506e-15
   9      0.25231232951296
  10    -9.7117526698185e-17
  11    2.3889995750992e-16
  12    2.0879321287724e-15
  13    1.5888815439115e-16
  14    -2.8470082672224e-16
  15      0.20691852637783
  16    1.9801830922315e-16
  17    1.5974513841277e-15
  18      0.25231232951296
  19    6.4030024302917e-17
  20    2.3941012718964e-16
  21    -1.084244452595e-15
  22    -2.3404369894949e-16
  23    1.3398215855065e-16
  24      0.28675987268027
  25    -4.2831856898377e-16
  26    -1.6520156010241e-15
  27       0.1585098740465
  28    -8.3689565447875e-17
  29    2.8385956218083e-16
  30    -1.950750203703e-15
  31    1.5913764262002e-16
  32    -4.294501101951e-16
  33      0.28675987268027
  34    6.9397350934411e-16
  35    -7.5938829736471e-16
  36      0.15850987404651
  37    -5.9616769544168e-16
  38    5.9402130391384e-16
  39    8.1045646594548e-15
  40    -1.136908558779e-15
  41    5.3539295549493e-16
  42     -0.16536385815835
  43    -5.6211773068471e-15
  44    6.1098257150246e-15
  45      -0.2118752084009
  46    -2.2109033005376e-16
  47    1.2753280135567e-16
  48    6.0690767717193e-15
  49    -1.4239070128301e-15
  50    -2.0088645227524e-16
  51     -0.16536385815834
  52    -4.0468475048663e-15
  53    -1.8580718134646e-15
  54     -0.21187520840088
  55    -4.1379471713683e-16
  56    3.4206324232346e-16
  57    -2.3778313376719e-17
  58    -5.2528494266519e-16
  59    -6.4575973181468e-18
  60    3.6795213789394e-16
  61    4.0779693085799e-16
  62    -2.4388016798216e-16
  63    -3.2653008324526e-16
  64    -1.266149387193e-14
  65    1.0634696443414e-16
  66    -7.9569981980828e-15
 Sym= A
 Ene=               6
 Spin= Alpha
 Occup=    1.00000
   1    -6.9320315065107e-17
   2    -3.6029539766846e-16
   3    5.3357916435898e-15
   4    5.5748242099302e-16
   5    3.5846595366905e-16
   6      0.22771470835864
   7    2.185500512623e-15
   8    -5.3761880979368e-15
   9      0.27776435572879
  10    -1.8278974946649e-16
  11    4.2579846924541e-16
  12    -1.6998586630198e-15
  13    2.088899384089e-16
  14    -8.0457128314013e-16
  15      0.22771470835863
  16      9.9941339549e-16
  17    -1.1434533970877e-15
  18      0.27776435572879
  19    6.3356110030716e-17
  20    9.4136354398617e-17
  21    -4.3144669786283e-15
  22    -4.2593536553694e-16
  23    1.5578126383778e-16
  24      0.27872911415991
  25    1.8536071387958e-15
  26    -7.3250878196734e-16
  27      0.14074251255726
  28    3.5655233877367e-17
  29    1.6418836090015e-16
  30    1.264592973477e-16
  31    -7.2429866539666e-16
  32    2.2655366987165e-16
  33      0.27872911415991
  34    -9.8016173103847e-16
  35    5.4869374995922e-16
  36      0.14074251255725
  37    -7.6284745066269e-16
  38    1.4249347779226e-16
  39    1.0171601348075e-14
  40    -2.0433271993078e-15
  41    1.0634281145113e-15
  42     -0.15649124038311
  43    -1.2531445483506e-14
  44    8.7009398314984e-15
  45     -0.21017517460198
  46    -9.3039206193959e-17
  47    -7.6287703005346e-16
  48    9.6422493540112e-15
  49    -1.5801770687253e-15
  50    -6.8235622988067e-16
  51     -0.15649124038312
  52    7.2264003644118e-16
  53    -5.4523238552386e-17
  54     -0.21017517460201
  55    8.5127637368229e-17
  56    1.1582803796972e-15
  57    4.8128352874236e-16
  58    -9.574169556818e-16
  59    -1.1586132705156e-16
  60    -5.2384797995908e-16
  61    -9.0398860209473e-17
  62    1.1243437793419e-16
  63    8.5393662060358e-16
  64    -2.1496629486007e-14
  65    3.870246980598e-16
  66    -5.6747584048342e-15
 Sym= A
 Ene=               7
 Spin= Alpha
 Occup=    1.00000
   1    -1.3538562366503e-16
   2    -4.3021165917722e-15
   3    5.3950303245329e-15
   4    8.3284343511795e-15
   5    2.4076787323595e-15
   6      0.24067160876594
   7    7.5223650276179e-14
   8    -7.750411793966e-14
   9      0.29099671259653
  10    4.0764864187431e-17
  11    -3.9492257850495e-15
  12    -1.2885204525089e-14
  13    8.2419156619517e-15
  14    1.8309928344709e-16
  15      0.24067160876595
  16    7.275264496784e-14
  17    6.5440849868987e-14
  18      0.29099671259655
  19    -2.8135841144277e-15
  20    4.5392890502031e-15
  21    -5.9693590431518e-14
  22    -1.6028478518062e-14
  23    4.3594678102973e-15
  24      0.27573714850752
  25    3.2931888274203e-15
  26    -1.8819836138418e-14
  27      0.12834101718498
  28    -3.2957950678278e-15
  29    5.2543607263732e-15
  30    -4.6522507815036e-14
  31    -1.4862553212695e-14
  32    -4.7282653620476e-15
  33      0.27573714850752
  34    -3.0539490682871e-15
  35    2.0161160136771e-14
  36      0.12834101718497
  37    -1.4377460783616e-14
  38    -5.891485684986e-15
  39    3.4974697109624e-13
  40    -5.1981618824491e-14
  41    3.6898789180137e-14
  42     -0.15129865419357
  43    -1.8977077192018e-13
  44    1.8237911821018e-13
  45      -0.2088186007154
  46    -1.3871305887966e-14
  47    -7.1685814667498e-15
  48    3.5134037781639e-13
  49    -4.9518261926905e-14
  50    -3.6276370892803e-14
  51     -0.15129865419355
  52    -1.6112732709142e-13
  53    -1.695967634062e-13
  54     -0.20881860071539
  55    -6.367493979343e-15
  56    2.3353539904621e-14
  57    -7.6640940334256e-15
  58    1.9195581510392e-14
  59    -2.6455792542119e-15
  60    7.5986068419252e-15
  61    -1.578280796512e-15
  62    8.9054220706303e-15
  63    2.5961723580272e-14
  64    -4.3739798564944e-13
  65    2.4563335977262e-14
  66    -4.0845924083492e-13
 Sym= A
 Ene=               8
 Spin= Alpha
 Occup=    1.00000
   1    -1.1076700607331e-14
   2    -7.3584919880814e-13
   3    -3.1785922322757e-13
   4    1.7801427959053e-12
   5    1.0381199935515e-13
   6      0.24191716318718
   7    1.256543607443e-11
   8    -1.2633761426952e-11
   9      0.28698133401009
  10    -1.9403335859153e-14
  11    -6.8660144769428e-13
  12    -8.3104570691912e-13
  13    1.7591672164926e-12
  14    -7.3446566978201e-14
  15      0.24191716318718
  16    1.251305400458e-11
  17    1.2231434936341e-11
  18      0.28698133401009
  19    -4.8023865189889e-13
  20    6.9845920956688e-13
  21    -9.4366802337887e-12
  22    -3.0973023045848e-12
  23    8.5699478076092e-13
  24      0.28365370064923
  25    6.5576863432283e-14
  26    -3.3390735241826e-12
  27      0.12461387994403
  28    -4.7366043305517e-13
  29    6.6268638524214e-13
  30    -9.0642165169049e-12
  31    -3.1081348440533e-12
  32    -8.4057177829706e-13
  33      0.28365370064924
  34    -1.4460842184043e-13
  35    3.4260860568865e-12
  36      0.12461387994403
  37    -2.2718909420836e-12
  38    -1.3898824355635e-12
  39    5.824477913633e-11
  40    -8.6415342196236e-12
  41    6.2418190997437e-12
  42     -0.15027994622605
  43    -2.9924219789799e-11
  44    2.9841536633455e-11
  45     -0.20775774972601
  46    -2.2427971138095e-12
  47    -1.43759250825e-12
  48    5.8256606417241e-11
  49    -8.5710537470364e-12
  50    -6.2236797037808e-12
  51     -0.15027994622604
  52    -2.8947301064385e-11
  53    -2.9306284186762e-11
  54     -0.20775774972601
  55    -1.1410852847845e-12
  56    3.9411642105201e-12
  57    -1.148965232562e-12
  58    3.8131643981972e-12
  59    -5.023494376505e-13
  60    1.4579688423037e-12
  61    -5.0989240816623e-13
  62    1.5089395258839e-12
  63    4.7266013677092e-12
  64    -7.0645719451576e-11
  65    4.6825033091432e-12
  66    -6.9580433359309e-11
 Sym= A
 Ene=               9
 Spin= Alpha
 Occup=    1.00000
   1    1.1266992219381e-11
   2    -3.1666777144784e-10
   3    -3.2447254181703e-10
   4    6.2556388656621e-10
   5    3.6468867361659e-11
   6      0.23040558583952
   7    4.6088921310816e-09
   8    -4.6455117363771e-09
   9      0.26684526287957
  10    9.9279118726088e-12
  11    -3.0866507873967e-10
  12    -4.0701617035003e-10
  13    6.2182559944188e-10
  14    -3.1186031265946e-11
  15      0.23040558584011
  16    4.5995742303652e-09
  17    4.5811222000062e-09
  18      0.26684526287988
  19    -1.821228224496e-10
  20    2.7038027349112e-10
  21    -3.3712014721545e-09
  22    -1.1536728120927e-09
  23    3.4093014770257e-10
  24      0.30262654286581
  25    -1.0442907366346e-11
  26    -1.1980739419487e-09
  27      0.12887542732544
  28    -1.8108484090437e-10
  29    2.6474347602805e-10
  30    -3.3113877955916e-09
  31    -1.1553472714249e-09
  32    -3.382567178897e-10
  33      0.30262654286574
  34    -4.4391056640566e-11
  35    1.2113972896738e-09
  36      0.12887542732535
  37    -8.3535843924872e-10
  38    -5.1736521327178e-10
  39    2.1495837066969e-08
  40    -3.112687117202e-09
  41    2.3083713327877e-09
  42     -0.15309036756977
  43    -1.0896777820295e-08
  44    1.0986815041683e-08
  45     -0.20750350008194
  46    -8.3084825156974e-10
  47    -5.2469628925607e-10
  48     2.14988743811e-08
  49    -3.1009953936028e-09
  50    -2.3056658892561e-09
  51     -0.15309036756881
  52    -1.0740713715352e-08
  53    -1.0900619779573e-08
  54     -0.20750350008038
  55    -4.2834237770375e-10
  56    1.4987991291683e-09
  57    -4.2996456072408e-10
  58    1.478105970145e-09
  59    -1.722332057612e-10
  60    5.4813514632759e-10
  61    -1.7332922249418e-10
  62    5.5639052471133e-10
  63    1.7777195298349e-09
  64    -2.5892287819608e-08
  65    1.7702372882295e-09
  66    -2.572295440527e-08
 Sym= A
 Ene=              10
 Spin= Alpha
 Occup=    1.00000
   1    4.9349881066744e-09
   2    -6.3044288448089e-08
   3    -8.0626295898059e-08
   4    8.8953626550314e-08
   5    5.855517807043e-09
   6       0.2145837209133
   7    7.887540959758e-07
   8    -8.0101528123384e-07
   9      0.24407150971625
  10    4.6285221308601e-09
  11    -6.1157119745279e-08
  12    -1.0048939028572e-07
  13    8.8034033998782e-08
  14    -4.6133340965251e-09
  15      0.21458372093055
  16    7.8656342705352e-07
  17    7.8558151757927e-07
  18      0.24407150972555
  19    -3.3618900159077e-08
  20    5.4817591175843e-08
  21    -5.623289871119e-07
  22    -1.778290106425e-07
  23    6.8390895591954e-08
  24      0.32197145104309
  25    7.5695808957658e-09
  26    -1.9395145900095e-07
  27      0.13450980814739
  28    -3.3381726179094e-08
  29    5.3494555631874e-08
  30    -5.4800111711892e-07
  31    -1.7816358026646e-07
  32    -6.7769927898534e-08
  33      0.32197145104148
  34    -4.8336607930141e-10
  35    1.9708119754682e-07
  36      0.13450980814522
  37    -1.4663637832281e-07
  38    -8.1202272619345e-08
  39    3.7157777695906e-06
  40    -5.1586968914946e-07
  41    3.9965502904463e-07
  42     -0.15706883367888
  43    -1.868277601859e-06
  44    1.9042291430406e-06
  45     -0.20824340410467
  46    -1.4558217034585e-07
  47    -8.2893387528232e-08
  48    3.7166775971046e-06
  49    -5.1307738333631e-07
  50    -3.9906649663612e-07
  51     -0.15706883365398
  52    -1.8309462718335e-06
  53    -1.8837518879042e-06
  54      -0.2082434040648
  55    -7.7652843397165e-08
  56    2.6057309560019e-07
  57    -7.8063535178486e-08
  58    2.5559457322665e-07
  59    -1.9007395348461e-08
  60    8.9948177224605e-08
  61    -1.9226502669538e-08
  62    9.1903858278897e-08
  63    3.0640994789081e-07
  64    -4.4686166852418e-06
  65    3.0458228491648e-07
  66    -4.4283296995246e-06
 Sym= A
 Ene=              11
 Spin= Alpha
 Occup=    1.00000
   1    -1.7668191414277e-09
   2    -1.6550802328458e-08
   3    -1.2243089446509e-06
   4    6.274544558782e-08
   5    -5.6104142461912e-08
   6      0.20496052611013
   7    1.1651725899574e-06
   8    -4.8682028185035e-07
   9      0.23118889010999
  10    2.2032810497703e-08
  11    -1.9474794536154e-07
  12    8.9104296259166e-07
  13    1.8547257803545e-07
  14    -5.8922276782396e-08
  15      0.20496054492953
  16    1.3948360809125e-06
  17    2.0976442225266e-06
  18      0.23118890039924
  19    -4.9754845994239e-08
  20    4.2598647963224e-08
  21    -1.3207741718918e-07
  22    -2.433246840476e-07
  23    1.0333342193362e-07
  24      0.33298493170534
  25    -3.7790407764107e-07
  26    -4.4985238378003e-07
  27      0.13696989241168
  28    -6.3198997347635e-08
  29    1.5085109769589e-07
  30    -1.6474013573364e-06
  31    -2.6939120027419e-07
  32    -1.4606572796489e-07
  33      0.33298493052079
  34    4.3153113941426e-07
  35    1.6314430509118e-07
  36      0.13696989035668
  37    -1.8623722062571e-07
  38    -2.1233148890826e-07
  39    6.0871923768001e-06
  40    -6.5757711634342e-07
  41    6.3234534671284e-07
  42     -0.15918255082663
  43    -1.0392026719776e-06
  44    2.0448337168486e-06
  45     -0.20890713668753
  46    -2.9065991806645e-07
  47    -4.8950034561026e-08
  48    5.9753905015169e-06
  49    -9.5611930261655e-07
  50    -6.7983442075528e-07
  51     -0.15918252586664
  52    -4.916538604415e-06
  53    -4.1166267684494e-06
  54     -0.20890709677777
  55    -1.5579968509864e-07
  56    1.6032372428012e-07
  57    -1.085155187969e-07
  58    6.8044029853372e-07
  59    -9.7622994527209e-09
  60    2.3443940552501e-07
  61    -2.2664744595218e-08
  62    4.4157183993125e-08
  63    4.0353056953985e-07
  64    -5.1290273041246e-06
  65    6.0085778983749e-07
  66    -9.2591049193392e-06
 Sym= A
 Ene=              12
 Spin= Alpha
 Occup=    1.00000
   1    3.4055272762901e-07
   2    -3.3503633261219e-06
   3    3.5420162949239e-05
   4    3.1944047204078e-06
   5    1.7240780289677e-06
   6      0.20154308952857
   7    1.1225481770718e-05
   8    -3.4657648055708e-05
   9      0.22668026367626
  10    -2.2361806307487e-07
  11    2.1131448969431e-06
  12    -3.7307372591164e-05
  13    -1.8407127321469e-06
  14    1.7458724593041e-06
  15      0.20154252674098
  16    3.3503718700938e-06
  17    -1.9793936582113e-05
  18      0.22667995560469
  19    -3.7040546015908e-07
  20    1.8980398462872e-06
  21    -3.1007004034478e-05
  22    -2.9004758208479e-06
  23    1.0705845935918e-06
  24      0.33722071560399