 Entering Gaussian System
 *********************************************
 Gaussian 98:
 frequency output generated by the xtb code
 *********************************************
                         Standard orientation:
 --------------------------------------------------------------------
  Center     Atomic     Atomic              Coordinates (Angstroms)
  Number     Number      Type              X           Y           Z
 --------------------------------------------------------------------
    1          5             0       -0.036599   -1.514445   -0.013354
    2          7             0       -1.260498   -0.561973   -0.000037
    3          6             0       -2.540559   -0.909461    0.003681
    4          6             0       -3.352120    0.234352    0.005256
    5          6             0       -2.508793    1.321385    0.001648
    6          6             0       -1.185780    0.815593   -0.001500
    7          6             0        0.035743    1.468895   -0.002360
    8          6             0        1.223866    0.757046    0.000184
    9          7             0        1.231630   -0.622622    0.001831
   10          6             0        2.493233   -1.031774    0.006672
   11          6             0        3.359411    0.071323    0.009017
   12          6             0        2.570349    1.198071    0.004532
   13          9             0       -0.054349   -2.281068   -1.156530
   14          9             0       -0.057366   -2.320160    1.102054
   15          1             0       -2.830047   -1.942774    0.005404
   16          1             0       -4.423999    0.239481    0.008564
   17          1             0       -2.773799    2.360467    0.001710
   18          1             0        0.061856    2.548141   -0.003544
   19          1             0        2.731724   -2.077963    0.008731
   20          1             0        4.430254    0.024552    0.013225
   21          1             0        2.885844    2.222935    0.004816
 --------------------------------------------------------------------
     1 basis functions        1 primitive gaussians
     1 alpha electrons        1 beta electrons

 Harmonic frequencies (cm**-1), IR intensities (km*mol⁻¹),
 Raman scattering activities (A**4/amu), Raman depolarization ratios,
 reduced masses (AMU), force constants (mDyne/A) and normal coordinates:
                      1                      2                      3
                        a                      a                      a 
 Frequencies --    39.5670               107.7038               120.8226
 Red. masses --    12.7423                12.7529                13.9739
 Frc consts  --     0.0000                 0.0000                 0.0000
 IR Inten    --     2.6864                 0.0041                 0.0008
 Raman Activ --     0.0000                 0.0000                 0.0000
 Depolar     --     0.0000                 0.0000                 0.0000
 Atom AN      X      Y      Z        X      Y      Z        X      Y      Z
   1   5     0.00   0.00  -0.02     0.00  -0.00  -0.19    -0.00  -0.00  -0.00
   2   7     0.00  -0.00   0.14     0.00   0.00  -0.32     0.00  -0.00   0.25
   3   6     0.00  -0.00   0.35     0.00   0.00   0.02     0.00   0.00   0.22
   4   6     0.00  -0.00   0.22     0.00   0.00   0.36     0.00  -0.00  -0.14
   5   6     0.00  -0.00  -0.11     0.00   0.00   0.22     0.00  -0.00  -0.32
   6   6     0.00  -0.00  -0.16     0.00   0.00  -0.17     0.00  -0.00  -0.07
   7   6     0.00  -0.00  -0.34     0.00   0.00  -0.18     0.00  -0.00  -0.00
   8   6     0.00  -0.00  -0.16    -0.00   0.00  -0.17     0.00   0.00   0.06
   9   7    -0.00  -0.00   0.14    -0.00   0.00  -0.31     0.00   0.00  -0.26
  10   6    -0.00  -0.00   0.36    -0.00   0.00   0.03     0.00  -0.00  -0.22
  11   6    -0.00  -0.00   0.22    -0.00   0.00   0.36     0.00   0.00   0.15
  12   6    -0.00  -0.00  -0.11    -0.00   0.00   0.21     0.00   0.00   0.33
  13   9     0.01   0.30  -0.24    -0.00  -0.34  -0.01    -0.46   0.01  -0.00
  14   9    -0.01  -0.29  -0.25     0.00   0.32  -0.00     0.45  -0.01   0.00
  15   1     0.00  -0.00   0.17     0.00   0.00   0.00     0.00   0.00   0.13
  16   1     0.00  -0.00   0.11     0.00   0.00   0.19     0.00   0.00  -0.07
  17   1     0.00  -0.00  -0.08     0.00   0.00   0.12    -0.00  -0.00  -0.17
  18   1     0.00  -0.00  -0.16     0.00   0.00  -0.02     0.00  -0.00  -0.00
  19   1    -0.00  -0.00   0.17    -0.00   0.00   0.01     0.00  -0.00  -0.13
  20   1    -0.00  -0.00   0.11    -0.00   0.00   0.19     0.00   0.00   0.08
  21   1     0.00  -0.00  -0.08    -0.00   0.00   0.11    -0.00   0.00   0.18
                      4                      5                      6
                        a                      a                      a 
 Frequencies --   172.2650               233.0925               251.1256
 Red. masses --    12.2363                15.1799                13.0921
 Frc consts  --     0.0000                 0.0000                 0.0000
 IR Inten    --     0.0000                 3.4763                 4.2086
 Raman Activ --     0.0000                 0.0000                 0.0000
 Depolar     --     0.0000                 0.0000                 0.0000
 Atom AN      X      Y      Z        X      Y      Z        X      Y      Z
   1   5     0.00   0.00   0.00    -0.02   0.00  -0.00    -0.00  -0.18   0.00
   2   7    -0.00  -0.00   0.09    -0.19  -0.11  -0.00    -0.10  -0.08   0.00
   3   6    -0.00  -0.00  -0.31    -0.25   0.10   0.00    -0.18   0.19   0.00
   4   6    -0.00   0.00  -0.21    -0.11   0.21   0.00    -0.01   0.33  -0.00
   5   6     0.00   0.00   0.26     0.04   0.09  -0.00     0.16   0.18   0.00
   6   6     0.00  -0.00   0.31    -0.03  -0.09  -0.00     0.04  -0.07   0.00
   7   6     0.00  -0.00   0.00    -0.07   0.00  -0.00    -0.00  -0.07   0.00
   8   6     0.00   0.00  -0.31    -0.03   0.09   0.00    -0.04  -0.07   0.00
   9   7    -0.00   0.00  -0.09    -0.19   0.12   0.00     0.09  -0.09   0.00
  10   6    -0.00   0.00   0.31    -0.26  -0.09  -0.00     0.19   0.18   0.00
  11   6    -0.00  -0.00   0.20    -0.12  -0.20  -0.00     0.02   0.33  -0.00
  12   6     0.00  -0.00  -0.27     0.04  -0.09   0.00    -0.15   0.19  -0.00
  13   9    -0.35   0.01  -0.00     0.51  -0.01   0.00    -0.01  -0.39   0.11
  14   9     0.35  -0.01   0.00     0.53  -0.01   0.00    -0.01  -0.39  -0.12
  15   1    -0.00  -0.00  -0.18    -0.12   0.04   0.00    -0.12   0.07   0.00
  16   1    -0.00   0.00  -0.13    -0.03   0.10   0.00    -0.00   0.14  -0.00
  17   1     0.00   0.00   0.13     0.06   0.04  -0.00     0.11   0.07  -0.00
  18   1    -0.00   0.00   0.00    -0.06   0.00  -0.00    -0.00  -0.02   0.00
  19   1    -0.00   0.00   0.18    -0.13  -0.04  -0.00     0.12   0.07   0.00
  20   1    -0.00  -0.00   0.13    -0.04  -0.10  -0.00     0.01   0.14  -0.00
  21   1     0.00  -0.00  -0.13     0.06  -0.04   0.00    -0.11   0.07  -0.00
                      7                      8                      9
                        a                      a                      a 
 Frequencies --   300.4185               322.8030               349.3499
 Red. masses --    14.2531                13.8914                10.4182
 Frc consts  --     0.0000                 0.0000                 0.0000
 IR Inten    --    10.0248                 0.0001                 1.3079
 Raman Activ --     0.0000                 0.0000                 0.0000
 Depolar     --     0.0000                 0.0000                 0.0000
 Atom AN      X      Y      Z        X      Y      Z        X      Y      Z
   1   5     0.00   0.04   0.00     0.00  -0.00   0.00     0.00   0.00  -0.19
   2   7    -0.23  -0.18  -0.00     0.00   0.00  -0.39    -0.00  -0.00  -0.08
   3   6    -0.28  -0.01  -0.01     0.01  -0.00  -0.18    -0.00   0.00   0.27
   4   6    -0.14   0.10   0.00     0.00  -0.00   0.20    -0.00   0.00  -0.01
   5   6    -0.00  -0.01   0.00    -0.00  -0.00  -0.01    -0.00   0.00  -0.24
   6   6    -0.07  -0.20  -0.00    -0.00   0.00  -0.32    -0.00  -0.00  -0.01
   7   6    -0.01  -0.32  -0.01     0.00   0.00  -0.00    -0.00  -0.01   0.56
   8   6     0.06  -0.20  -0.00    -0.00  -0.00   0.32     0.00  -0.00  -0.01
   9   7     0.23  -0.19  -0.00     0.00  -0.00   0.39     0.00  -0.00  -0.08
  10   6     0.28  -0.03  -0.01     0.00   0.00   0.18     0.00  -0.00   0.27
  11   6     0.14   0.09   0.00     0.00   0.00  -0.20     0.00   0.00  -0.01
  12   6    -0.00  -0.01   0.00    -0.00   0.00   0.01     0.00  -0.00  -0.24
  13   9     0.01   0.38  -0.20    -0.38   0.01   0.00    -0.01  -0.23  -0.14
  14   9     0.01   0.37   0.22     0.37  -0.01   0.00     0.01   0.24  -0.13
  15   1    -0.13   0.01  -0.00     0.00  -0.00  -0.07    -0.00   0.00   0.18
  16   1    -0.04   0.07   0.00     0.00  -0.00   0.16    -0.00   0.00  -0.01
  17   1     0.04   0.01   0.00    -0.00  -0.00   0.04    -0.00   0.00  -0.15
  18   1    -0.00  -0.09  -0.00     0.00   0.00  -0.00    -0.00  -0.00   0.35
  19   1     0.13   0.00  -0.00     0.00   0.00   0.06     0.00   0.00   0.18
  20   1     0.04   0.07   0.00     0.00   0.00  -0.16     0.00   0.00  -0.01
  21   1    -0.04   0.01   0.00    -0.00   0.00  -0.04     0.00   0.00  -0.15
                     10                     11                     12
                        a                      a                      a 
 Frequencies --   385.9763               417.2001               446.8242
 Red. masses --    12.2264                13.1862                13.8483
 Frc consts  --     0.0000                 0.0000                 0.0000
 IR Inten    --    12.4341                 3.7486                 8.4183
 Raman Activ --     0.0000                 0.0000                 0.0000
 Depolar     --     0.0000                 0.0000                 0.0000
 Atom AN      X      Y      Z        X      Y      Z        X      Y      Z
   1   5    -0.07   0.00  -0.00    -0.00  -0.18  -0.00     0.00   0.00  -0.28
   2   7    -0.09  -0.31  -0.00     0.20  -0.11  -0.00     0.00  -0.00   0.29
   3   6    -0.15  -0.14  -0.00     0.18   0.00  -0.00    -0.00  -0.00   0.10
   4   6     0.07   0.00   0.00     0.28   0.07  -0.00     0.00   0.00  -0.13
   5   6     0.28  -0.16  -0.00     0.33   0.01  -0.00     0.00   0.00   0.08
   6   6     0.17  -0.34  -0.00     0.20  -0.12  -0.00     0.00  -0.00   0.25
   7   6     0.02  -0.00   0.00     0.00   0.06   0.01     0.00  -0.00  -0.28
   8   6     0.19   0.33   0.00    -0.20  -0.11  -0.00    -0.00  -0.00   0.25
   9   7    -0.08   0.32   0.00    -0.21  -0.10  -0.00    -0.00  -0.00   0.29
  10   6    -0.14   0.15   0.00    -0.18   0.01  -0.00     0.00  -0.00   0.10
  11   6     0.07  -0.01  -0.00    -0.28   0.09  -0.00    -0.00   0.00  -0.13
  12   6     0.29   0.15   0.00    -0.33   0.03  -0.00    -0.00   0.00   0.08
  13   9    -0.22   0.01  -0.00     0.00   0.13  -0.32    -0.01  -0.37  -0.23
  14   9    -0.23   0.01   0.00     0.00   0.11   0.32     0.01   0.38  -0.21
  15   1    -0.08  -0.03  -0.00     0.03   0.01   0.00    -0.00   0.00  -0.00
  16   1     0.02   0.07   0.00     0.08   0.04  -0.00     0.00   0.00  -0.11
  17   1     0.14  -0.03  -0.00     0.14   0.01  -0.00     0.00   0.00   0.03
  18   1    -0.13   0.00   0.00     0.00   0.01   0.00     0.00  -0.00  -0.27
  19   1    -0.08   0.03   0.00    -0.02   0.01   0.00     0.00   0.00  -0.00
  20   1     0.02  -0.07  -0.00    -0.08   0.05   0.00    -0.00   0.00  -0.11
  21   1     0.14   0.02   0.00    -0.14   0.02  -0.00    -0.00   0.00   0.03
                     13                     14                     15
                        a                      a                      a 
 Frequencies --   557.7420               561.3034               570.4474
 Red. masses --     9.2659                15.5480                 9.4812
 Frc consts  --     0.0000                 0.0000                 0.0000
 IR Inten    --     9.3490                 4.1012                 0.0005
 Raman Activ --     0.0000                 0.0000                 0.0000
 Depolar     --     0.0000                 0.0000                 0.0000
 Atom AN      X      Y      Z        X      Y      Z        X      Y      Z
   1   5     0.00   0.03  -0.03     0.01   0.38   0.01     0.00   0.00  -0.00
   2   7     0.00  -0.01   0.14     0.01  -0.06  -0.01     0.00  -0.00   0.23
   3   6     0.00  -0.01  -0.25     0.03  -0.08   0.02    -0.00   0.00  -0.29
   4   6     0.01   0.00   0.36     0.16   0.01  -0.03     0.00   0.00   0.35
   5   6     0.01  -0.00  -0.33     0.21  -0.04   0.02    -0.00   0.00  -0.30
   6   6     0.01  -0.01   0.18     0.08  -0.15  -0.02    -0.00   0.00   0.17
   7   6    -0.00  -0.01   0.07    -0.00  -0.15  -0.00    -0.00  -0.00   0.00
   8   6    -0.01  -0.01   0.18    -0.08  -0.15  -0.02    -0.00  -0.00  -0.17
   9   7    -0.00  -0.00   0.14    -0.01  -0.06  -0.01     0.00  -0.00  -0.23
  10   6    -0.00  -0.01  -0.25    -0.04  -0.08   0.02    -0.00  -0.00   0.28
  11   6    -0.01   0.00   0.37    -0.16   0.01  -0.03     0.00  -0.00  -0.35
  12   6    -0.01  -0.00  -0.33    -0.21  -0.03   0.02    -0.00  -0.00   0.29
  13   9    -0.00  -0.04   0.01     0.00   0.17   0.51     0.04  -0.00   0.00
  14   9     0.00   0.07  -0.07     0.00   0.18  -0.50    -0.04   0.00  -0.00
  15   1    -0.00  -0.00  -0.24     0.01  -0.02   0.02    -0.00  -0.00  -0.26
  16   1     0.00   0.00   0.16     0.05   0.03  -0.01     0.00   0.00   0.15
  17   1     0.01  -0.00  -0.20     0.09  -0.00   0.02    -0.00  -0.00  -0.19
  18   1    -0.00  -0.00  -0.11    -0.00  -0.05   0.01     0.00  -0.00  -0.00
  19   1     0.00  -0.00  -0.24    -0.01  -0.02   0.02    -0.00   0.00   0.25
  20   1    -0.00   0.00   0.16    -0.05   0.04  -0.01     0.00  -0.00  -0.15
  21   1    -0.01  -0.00  -0.20    -0.09   0.00   0.02    -0.00   0.00   0.19
                     16                     17                     18
                        a                      a                      a 
 Frequencies --   639.4509               679.3323               686.2534
 Red. masses --    11.9036                12.3018                11.0924
 Frc consts  --     0.0000                 0.0000                 0.0000
 IR Inten    --     0.0020                 2.3244                 9.1420
 Raman Activ --     0.0000                 0.0000                 0.0000
 Depolar     --     0.0000                 0.0000                 0.0000
 Atom AN      X      Y      Z        X      Y      Z        X      Y      Z
   1   5     0.00   0.00  -0.00     0.00  -0.00  -0.01     0.63  -0.02   0.00
   2   7     0.00  -0.00   0.44     0.00  -0.00   0.43     0.14  -0.14  -0.00
   3   6    -0.00   0.00  -0.16    -0.00   0.00  -0.16     0.12   0.09   0.00
   4   6    -0.00   0.00  -0.04    -0.00   0.00   0.00     0.04   0.17  -0.00
   5   6    -0.00   0.00   0.15    -0.00   0.00   0.08    -0.08   0.16   0.00
   6   6    -0.00  -0.00  -0.46    -0.00  -0.00  -0.46    -0.17  -0.15   0.00
   7   6    -0.00   0.00   0.00    -0.00   0.00   0.23    -0.41   0.01  -0.00
   8   6    -0.00   0.00   0.46     0.00   0.00  -0.46    -0.16   0.16  -0.00
   9   7     0.00   0.00  -0.44    -0.00   0.00   0.43     0.15   0.14   0.00
  10   6    -0.00  -0.00   0.16     0.00   0.00  -0.16     0.11  -0.09   0.00
  11   6    -0.00  -0.00   0.04     0.00  -0.00   0.00     0.03  -0.17   0.00
  12   6     0.00  -0.00  -0.15     0.00  -0.00   0.08    -0.09  -0.16  -0.00
  13   9     0.05  -0.00  -0.00    -0.00  -0.10  -0.07    -0.10   0.00   0.00
  14   9    -0.05   0.00  -0.00     0.00   0.10  -0.06    -0.10   0.00   0.00
  15   1    -0.00   0.00  -0.05    -0.00   0.00  -0.04    -0.04   0.05   0.00
  16   1     0.00   0.00   0.07    -0.00  -0.00   0.08     0.01  -0.01  -0.00
  17   1     0.00   0.00   0.19    -0.00   0.00   0.12     0.05   0.06  -0.00
  18   1    -0.00   0.00   0.00    -0.00   0.00   0.11    -0.22   0.00  -0.00
  19   1    -0.00  -0.00   0.05     0.00   0.00  -0.04    -0.04  -0.04  -0.00
  20   1     0.00  -0.00  -0.07     0.00  -0.00   0.08     0.01   0.00  -0.00
  21   1     0.00  -0.00  -0.19     0.00  -0.00   0.12     0.05  -0.07   0.00
                     19                     20                     21
                        a                      a                      a 
 Frequencies --   772.8043               795.4148               796.8181
 Red. masses --    11.1947                 3.2941                 3.5487
 Frc consts  --     0.0000                 0.0000                 0.0000
 IR Inten    --     1.4358                37.4440                 0.0302
 Raman Activ --     0.0000                 0.0000                 0.0000
 Depolar     --     0.0000                 0.0000                 0.0000
 Atom AN      X      Y      Z        X      Y      Z        X      Y      Z
   1   5     0.00   0.00   0.00    -0.00  -0.00   0.01    -0.00   0.00   0.00
   2   7    -0.09  -0.05  -0.00     0.00  -0.00  -0.00     0.00  -0.00  -0.01
   3   6    -0.20  -0.01   0.00     0.00   0.00   0.10     0.00   0.00   0.14
   4   6    -0.19  -0.04   0.00    -0.00   0.00   0.08     0.00   0.00   0.07
   5   6     0.15  -0.29  -0.00     0.00   0.00   0.25     0.00   0.00   0.26
   6   6     0.22   0.02  -0.00    -0.00  -0.00  -0.13    -0.00  -0.00  -0.17
   7   6     0.02   0.65  -0.00    -0.00  -0.00  -0.03    -0.00   0.00  -0.00
   8   6    -0.22   0.03  -0.00     0.00  -0.00  -0.14    -0.00   0.00   0.16
   9   7     0.09  -0.06  -0.00    -0.00  -0.00  -0.00     0.00  -0.00   0.01
  10   6     0.20  -0.02   0.00    -0.00   0.00   0.11     0.00  -0.00  -0.13
  11   6     0.19  -0.05   0.00     0.00   0.00   0.08     0.00  -0.00  -0.07
  12   6    -0.17  -0.29  -0.00    -0.00  -0.00   0.27     0.00  -0.00  -0.25
  13   9     0.00   0.03   0.04    -0.00  -0.01  -0.01     0.00  -0.00  -0.00
  14   9     0.00   0.03  -0.04     0.00   0.01  -0.01    -0.00   0.00  -0.00
  15   1    -0.04  -0.01   0.00    -0.00  -0.00  -0.29    -0.00  -0.00  -0.33
  16   1    -0.05   0.10  -0.00    -0.00  -0.00  -0.29    -0.00  -0.00  -0.31
  17   1     0.06  -0.08  -0.00    -0.00  -0.00  -0.45    -0.00  -0.00  -0.45
  18   1     0.00   0.18  -0.00    -0.00   0.00   0.11    -0.00   0.00   0.00
  19   1     0.04  -0.01   0.00     0.00  -0.00  -0.31    -0.00   0.00   0.31
  20   1     0.06   0.10   0.00     0.00  -0.00  -0.31    -0.00   0.00   0.30
  21   1    -0.07  -0.07  -0.00     0.00  -0.00  -0.47    -0.00   0.00   0.42
                     22                     23                     24
                        a                      a                      a 
 Frequencies --   813.4801               833.1222               844.5337
 Red. masses --    11.1146                 4.6606                 3.7636
 Frc consts  --     0.0000                 0.0000                 0.0000
 IR Inten    --     8.7126                 1.7992                 0.0013
 Raman Activ --     0.0000                 0.0000                 0.0000
 Depolar     --     0.0000                 0.0000                 0.0000
 Atom AN      X      Y      Z        X      Y      Z        X      Y      Z
   1   5     0.44  -0.01   0.00     0.00  -0.00   0.00    -0.00   0.00  -0.00
   2   7     0.05   0.01   0.00    -0.00   0.00  -0.08    -0.00  -0.00   0.04
   3   6    -0.07   0.21  -0.00     0.00  -0.00   0.30    -0.00  -0.00  -0.29
   4   6    -0.41   0.01   0.00     0.00  -0.00  -0.09     0.00  -0.00  -0.02
   5   6    -0.05  -0.28   0.00    -0.00   0.00  -0.09     0.00   0.00   0.21
   6   6     0.19  -0.00  -0.00    -0.00   0.00  -0.08    -0.00   0.00   0.01
   7   6     0.26  -0.01   0.00    -0.00   0.00   0.29    -0.00  -0.00  -0.00
   8   6     0.19  -0.01   0.00     0.00   0.00  -0.08    -0.00  -0.00  -0.01
   9   7     0.05  -0.01  -0.00     0.00   0.00  -0.09    -0.00   0.00  -0.03
  10   6    -0.08  -0.21   0.00    -0.00  -0.00   0.31    -0.00   0.00   0.28
  11   6    -0.41   0.01  -0.00    -0.00  -0.00  -0.09     0.00   0.00   0.02
  12   6    -0.03   0.28  -0.00     0.00   0.00  -0.09     0.00  -0.00  -0.21
  13   9    -0.05   0.00   0.00     0.00   0.02   0.01     0.00  -0.00  -0.00
  14   9    -0.05   0.00  -0.00    -0.00  -0.02   0.01    -0.00   0.00  -0.00
  15   1     0.01   0.05   0.00    -0.00  -0.00  -0.43     0.00   0.00   0.46
  16   1    -0.11   0.02   0.00     0.00   0.00   0.05     0.00   0.00   0.12
  17   1     0.02  -0.07  -0.00     0.00   0.00   0.21    -0.00  -0.00  -0.40
  18   1     0.15  -0.00   0.00     0.00  -0.00  -0.45     0.00   0.00   0.00
  19   1     0.01  -0.05  -0.00     0.00  -0.00  -0.44     0.00  -0.00  -0.45
  20   1    -0.12  -0.02  -0.00    -0.00   0.00   0.05     0.00  -0.00  -0.12
  21   1     0.03   0.06   0.00    -0.00   0.00   0.21    -0.00   0.00   0.39
                     25                     26                     27
                        a                      a                      a 
 Frequencies --   845.8143               847.2766               861.9405
 Red. masses --     3.7241                 3.4451                11.2775
 Frc consts  --     0.0000                 0.0000                 0.0000
 IR Inten    --     0.0011                 3.7073                 4.3412
 Raman Activ --     0.0000                 0.0000                 0.0000
 Depolar     --     0.0000                 0.0000                 0.0000
 Atom AN      X      Y      Z        X      Y      Z        X      Y      Z
   1   5    -0.00   0.00  -0.00     0.00   0.00   0.00     0.00   0.13   0.00
   2   7     0.00   0.00   0.01    -0.00  -0.00   0.01    -0.24  -0.03   0.00
   3   6    -0.00   0.00  -0.16    -0.00  -0.00   0.04    -0.17  -0.38  -0.00
   4   6     0.00   0.00   0.30     0.00  -0.00  -0.29     0.32  -0.04   0.00
   5   6    -0.00  -0.00  -0.09     0.00   0.00   0.15     0.04   0.21  -0.00
   6   6    -0.00  -0.00  -0.03    -0.00   0.00   0.04    -0.04   0.16  -0.00
   7   6    -0.00   0.00  -0.00     0.00   0.00  -0.03     0.00   0.20   0.00
   8   6    -0.00   0.00   0.03     0.00   0.00   0.04     0.05   0.16  -0.00
   9   7     0.00  -0.00  -0.01     0.00  -0.00   0.01     0.24  -0.04   0.00
  10   6    -0.00  -0.00   0.15     0.00  -0.00   0.03     0.15  -0.38   0.00
  11   6     0.00  -0.00  -0.30    -0.00  -0.00  -0.29    -0.32  -0.02   0.00
  12   6    -0.00   0.00   0.09    -0.00   0.00   0.16    -0.02   0.21  -0.00
  13   9    -0.00  -0.00  -0.00    -0.00  -0.00  -0.00    -0.00  -0.07  -0.09
  14   9     0.00   0.00  -0.00     0.00   0.00  -0.00    -0.00  -0.07   0.08
  15   1     0.00   0.00   0.24    -0.00  -0.00  -0.06    -0.08  -0.10   0.00
  16   1    -0.00  -0.00  -0.54     0.00   0.00   0.56     0.09   0.08  -0.00
  17   1     0.00   0.00   0.16    -0.00  -0.00  -0.28    -0.14   0.02   0.00
  18   1    -0.00   0.00   0.00    -0.00   0.00   0.03     0.00   0.06  -0.00
  19   1     0.00  -0.00  -0.24     0.00  -0.00  -0.05     0.07  -0.10   0.00
  20   1    -0.00   0.00   0.54    -0.00   0.00   0.55    -0.08   0.09  -0.00
  21   1     0.00  -0.00  -0.16     0.00  -0.00  -0.28     0.14   0.01   0.00
                     28                     29                     30
                        a                      a                      a 
 Frequencies --   873.0605               890.1855               952.5808
 Red. masses --     3.5933                 9.9665                12.1819
 Frc consts  --     0.0000                 0.0000                 0.0000
 IR Inten    --     5.1919                27.4812               181.9770
 Raman Activ --     0.0000                 0.0000                 0.0000
 Depolar     --     0.0000                 0.0000                 0.0000
 Atom AN      X      Y      Z        X      Y      Z        X      Y      Z
   1   5    -0.00   0.00   0.01    -0.49   0.01  -0.00    -0.02  -0.68  -0.02
   2   7    -0.00  -0.00   0.05     0.21   0.08  -0.00     0.04  -0.20   0.00
   3   6     0.00  -0.00   0.14     0.18   0.30  -0.00     0.01  -0.01  -0.00
   4   6     0.00  -0.00  -0.03    -0.14   0.02  -0.00     0.07   0.01  -0.00
   5   6    -0.00   0.00  -0.12     0.05  -0.14  -0.00    -0.12   0.13   0.00
   6   6    -0.00   0.00   0.06    -0.04  -0.19   0.00    -0.02   0.02  -0.00
   7   6     0.00  -0.00  -0.39    -0.26   0.01  -0.00     0.00   0.20  -0.00
   8   6     0.00   0.00   0.06    -0.03   0.19  -0.00     0.02   0.02  -0.00
   9   7     0.00  -0.00   0.06     0.21  -0.09   0.00    -0.05  -0.20   0.00
  10   6    -0.00  -0.00   0.14     0.17  -0.31   0.00    -0.01  -0.01  -0.00
  11   6    -0.00  -0.00  -0.03    -0.14  -0.01  -0.00    -0.07   0.01  -0.00
  12   6     0.00   0.00  -0.12     0.05   0.14   0.00     0.13   0.13   0.00
  13   9    -0.00  -0.01  -0.01     0.05  -0.00  -0.00     0.01   0.23   0.26
  14   9     0.00   0.01  -0.01     0.05  -0.00   0.00     0.01   0.23  -0.25
  15   1    -0.00  -0.00  -0.30     0.09   0.07   0.00    -0.15   0.04   0.00
  16   1     0.00   0.00   0.05    -0.04  -0.09   0.00     0.02  -0.11   0.00
  17   1    -0.00   0.00   0.20     0.18   0.00  -0.00    -0.11   0.02  -0.00
  18   1    -0.00   0.00   0.72    -0.26   0.01  -0.00     0.00   0.06   0.00
  19   1     0.00  -0.00  -0.29     0.09  -0.08  -0.00     0.15   0.03   0.00
  20   1    -0.00   0.00   0.05    -0.03   0.09  -0.00    -0.02  -0.11  -0.00
  21   1    -0.00   0.00   0.20     0.18  -0.01   0.00     0.11   0.01   0.00
                     31                     32                     33
                        a                      a                      a 
 Frequencies --  1022.8906              1031.9073              1033.9204
 Red. masses --     4.5474                 8.6639                 9.8279
 Frc consts  --     0.0000                 0.0000                 0.0000
 IR Inten    --     2.3282               214.3419               260.0370
 Raman Activ --     0.0000                 0.0000                 0.0000
 Depolar     --     0.0000                 0.0000                 0.0000
 Atom AN      X      Y      Z        X      Y      Z        X      Y      Z
   1   5     0.13   0.00   0.00    -0.01  -0.31  -0.56     0.01   0.29  -0.66
   2   7    -0.09   0.25   0.00    -0.06   0.17   0.04     0.05  -0.14   0.05
   3   6    -0.00  -0.15   0.00     0.00  -0.08  -0.00    -0.00   0.07  -0.00
   4   6    -0.05   0.05   0.00    -0.03   0.03  -0.00     0.02  -0.02  -0.00
   5   6     0.12  -0.11  -0.00     0.06  -0.07   0.00    -0.05   0.06   0.00
   6   6    -0.06   0.02   0.00    -0.01   0.06  -0.01     0.01  -0.05  -0.01
   7   6    -0.18   0.01  -0.00    -0.01  -0.16   0.00     0.00   0.13   0.00
   8   6    -0.06  -0.02  -0.00     0.01   0.06  -0.01    -0.01  -0.05  -0.01
   9   7    -0.10  -0.24  -0.00     0.06   0.16   0.04    -0.05  -0.13   0.05
  10   6     0.01   0.15  -0.00    -0.00  -0.08  -0.00     0.01   0.07  -0.00
  11   6    -0.05  -0.05  -0.00     0.03   0.03  -0.00    -0.02  -0.02  -0.00
  12   6     0.12   0.10   0.00    -0.06  -0.06   0.00     0.05   0.05   0.00
  13   9     0.01  -0.00  -0.00     0.00   0.17   0.25     0.00   0.09   0.17
  14   9     0.01  -0.00   0.00    -0.00  -0.07   0.13    -0.01  -0.20   0.27
  15   1     0.35  -0.14  -0.00     0.25  -0.09  -0.00    -0.21   0.08  -0.00
  16   1    -0.01   0.42  -0.00    -0.01   0.32  -0.00     0.00  -0.27  -0.00
  17   1     0.10  -0.02  -0.00    -0.04  -0.03  -0.01     0.04   0.03  -0.01
  18   1    -0.18   0.00  -0.00    -0.00  -0.05   0.01     0.00   0.04   0.01
  19   1     0.37   0.13   0.00    -0.25  -0.08  -0.01     0.21   0.07  -0.00
  20   1    -0.03  -0.42   0.00     0.02   0.31  -0.00    -0.02  -0.26  -0.00
  21   1     0.10   0.01   0.00     0.04  -0.04  -0.00    -0.04   0.03  -0.01
                     34                     35                     36
                        a                      a                      a 
 Frequencies --  1072.1696              1078.1777              1123.5404
 Red. masses --     2.4370                 3.0857                 4.8239
 Frc consts  --     0.0000                 0.0000                 0.0000
 IR Inten    --    77.9710                21.6591                67.9327
 Raman Activ --     0.0000                 0.0000                 0.0000
 Depolar     --     0.0000                 0.0000                 0.0000
 Atom AN      X      Y      Z        X      Y      Z        X      Y      Z
   1   5    -0.09   0.00   0.00     0.00   0.13  -0.00    -0.02   0.00  -0.00
   2   7     0.08  -0.04  -0.00     0.10  -0.05  -0.00     0.17   0.03  -0.00
   3   6     0.05   0.14  -0.00     0.03   0.16  -0.00    -0.00  -0.00  -0.00
   4   6     0.09   0.05  -0.00     0.10   0.02  -0.00     0.06  -0.12  -0.00
   5   6    -0.03  -0.11   0.00     0.01  -0.15   0.00     0.07  -0.18  -0.00
   6   6     0.09  -0.04  -0.00     0.06  -0.02  -0.00    -0.22   0.13   0.00
   7   6    -0.04  -0.00  -0.00    -0.00  -0.09   0.00    -0.15   0.01  -0.00
   8   6     0.09   0.04   0.00    -0.06  -0.02  -0.00    -0.23  -0.13  -0.00
   9   7     0.07   0.03   0.00    -0.11  -0.04  -0.00     0.16  -0.05   0.00
  10   6     0.04  -0.13   0.00    -0.02   0.17  -0.00    -0.00  -0.00   0.00
  11   6     0.08  -0.06   0.00    -0.10   0.02  -0.00     0.07   0.12   0.00
  12   6    -0.02   0.11  -0.00    -0.02  -0.15   0.00     0.08   0.19   0.00
  13   9     0.00  -0.00  -0.00    -0.00  -0.02  -0.02    -0.01   0.00  -0.00
  14   9     0.00  -0.00   0.00    -0.00  -0.02   0.02    -0.01  -0.00   0.00
  15   1    -0.11   0.08   0.00    -0.22   0.11   0.00    -0.38   0.11   0.00
  16   1     0.03   0.27  -0.00     0.03   0.23  -0.00     0.02   0.30  -0.00
  17   1    -0.54  -0.17   0.00    -0.50  -0.17   0.00     0.18  -0.02  -0.00
  18   1    -0.26   0.01  -0.00     0.01  -0.03  -0.00     0.32  -0.01   0.00
  19   1    -0.11  -0.07  -0.00     0.23   0.11   0.00    -0.39  -0.09  -0.00
  20   1     0.02  -0.26   0.00    -0.02   0.24  -0.00     0.01  -0.30   0.00
  21   1    -0.52   0.19  -0.00     0.51  -0.21   0.00     0.19   0.01   0.00
                     37                     38                     39
                        a                      a                      a 
 Frequencies --  1138.3904              1140.4584              1164.7194
 Red. masses --     8.2651                 9.7933                 3.7878
 Frc consts  --     0.0000                 0.0000                 0.0000
 IR Inten    --   170.2765                37.5801                 1.0873
 Raman Activ --     0.0000                 0.0000                 0.0000
 Depolar     --     0.0000                 0.0000                 0.0000
 Atom AN      X      Y      Z        X      Y      Z        X      Y      Z
   1   5     0.24   0.04  -0.00     0.04  -0.23   0.00     0.00  -0.01   0.00
   2   7    -0.12   0.29   0.00    -0.22   0.40   0.00     0.15   0.05  -0.00
   3   6    -0.13   0.07   0.00    -0.15   0.13   0.00     0.08  -0.11  -0.00
   4   6     0.11  -0.11  -0.00     0.17  -0.17  -0.00     0.00  -0.12   0.00
   5   6     0.15  -0.08  -0.00     0.26  -0.19  -0.00    -0.10  -0.10   0.00
   6   6     0.00   0.03   0.00     0.03   0.13   0.00    -0.15   0.15   0.00
   7   6    -0.05   0.04  -0.00    -0.02  -0.22   0.00    -0.00  -0.05  -0.00
   8   6     0.01  -0.08  -0.00    -0.03   0.11   0.00     0.16   0.14   0.00
   9   7    -0.21  -0.40  -0.00     0.18   0.26   0.00    -0.15   0.05  -0.00
  10   6    -0.17  -0.09  -0.00     0.10   0.09   0.00    -0.10  -0.11  -0.00
  11   6     0.16   0.16   0.00    -0.13  -0.12  -0.00    -0.00  -0.11   0.00
  12   6     0.24   0.13   0.00    -0.19  -0.13  -0.00     0.10  -0.09   0.00
  13   9     0.00  -0.00  -0.00     0.00   0.01   0.01     0.00   0.00   0.00
  14   9     0.00  -0.00   0.00     0.00   0.01  -0.01     0.00   0.00  -0.00
  15   1    -0.15   0.05   0.00    -0.23   0.10   0.00    -0.41   0.09   0.00
  16   1     0.03  -0.19   0.00     0.05  -0.30   0.00     0.00   0.32  -0.00
  17   1     0.01  -0.03  -0.00     0.04  -0.07  -0.00     0.32   0.06  -0.00
  18   1    -0.44   0.02  -0.00    -0.07  -0.06   0.00    -0.00  -0.01   0.00
  19   1    -0.23  -0.07  -0.00     0.15   0.06   0.00     0.40   0.07   0.00
  20   1     0.06   0.27  -0.00    -0.05  -0.22   0.00     0.01   0.32  -0.00
  21   1     0.04   0.05   0.00    -0.02  -0.05  -0.00    -0.31   0.08  -0.00
                     40                     41                     42
                        a                      a                      a 
 Frequencies --  1227.3898              1329.4018              1352.2581
 Red. masses --     6.0312                12.0596                11.2247
 Frc consts  --     0.0000                 0.0000                 0.0000
 IR Inten    --    87.0879               408.0037                42.3486
 Raman Activ --     0.0000                 0.0000                 0.0000
 Depolar     --     0.0000                 0.0000                 0.0000
 Atom AN      X      Y      Z        X      Y      Z        X      Y      Z
   1   5     0.07  -0.00   0.00     0.01  -0.00  -0.00    -0.02  -0.02  -0.00
   2   7    -0.11  -0.01   0.00     0.31   0.23  -0.00     0.25  -0.15  -0.00
   3   6    -0.09   0.21   0.00    -0.29  -0.04   0.00    -0.20  -0.02   0.00
   4   6     0.13   0.02  -0.00    -0.08  -0.19   0.00    -0.15  -0.11   0.00
   5   6     0.23  -0.12  -0.00     0.04   0.26  -0.00     0.24   0.13  -0.00
   6   6    -0.16  -0.08   0.00    -0.04  -0.34   0.00    -0.09   0.21   0.00
   7   6    -0.27   0.01  -0.00     0.10  -0.00   0.00     0.04   0.02   0.00
   8   6    -0.16   0.09  -0.00    -0.02   0.34  -0.00    -0.24  -0.44  -0.00
   9   7    -0.11   0.01  -0.00     0.30  -0.25   0.00     0.18   0.38   0.00
  10   6    -0.10  -0.21  -0.00    -0.28   0.07  -0.00    -0.16  -0.11  -0.00
  11   6     0.13  -0.03   0.00    -0.08   0.19  -0.00    -0.10   0.14  -0.00
  12   6     0.24   0.10   0.00     0.02  -0.27   0.00     0.31  -0.05   0.00
  13   9    -0.00  -0.00  -0.00    -0.00   0.00   0.00    -0.02  -0.00  -0.00
  14   9    -0.00  -0.00   0.00    -0.00   0.00  -0.00    -0.01  -0.00   0.00
  15   1     0.23  -0.01  -0.00    -0.00  -0.03  -0.00     0.07  -0.05  -0.00
  16   1     0.04  -0.15  -0.00    -0.03   0.06   0.00    -0.05  -0.03   0.00
  17   1    -0.17  -0.10   0.00    -0.10   0.05   0.00    -0.07   0.01   0.00
  18   1     0.56  -0.01   0.00     0.12  -0.00   0.00    -0.26   0.01  -0.00
  19   1     0.23  -0.00   0.00    -0.00   0.04   0.00     0.17   0.02   0.00
  20   1     0.05   0.15   0.00    -0.03  -0.05  -0.00    -0.03   0.03  -0.00
  21   1    -0.17   0.11  -0.00    -0.11  -0.04  -0.00    -0.03   0.02  -0.00
                     43                     44                     45
                        a                      a                      a 
 Frequencies --  1353.4097              1368.6625              1377.1737
 Red. masses --    11.8864                10.6224                10.0647
 Frc consts  --     0.0000                 0.0000                 0.0000
 IR Inten    --    23.5740                 5.5456                52.2606
 Raman Activ --     0.0000                 0.0000                 0.0000
 Depolar     --     0.0000                 0.0000                 0.0000
 Atom AN      X      Y      Z        X      Y      Z        X      Y      Z
   1   5     0.00  -0.05  -0.00     0.00   0.01   0.00    -0.06   0.00  -0.00
   2   7     0.09   0.45  -0.00     0.16  -0.05  -0.00     0.14   0.13  -0.00
   3   6    -0.01  -0.23   0.00     0.06  -0.30  -0.00     0.07  -0.35  -0.00
   4   6    -0.04   0.08   0.00    -0.30   0.22   0.00    -0.22   0.35   0.00
   5   6    -0.19   0.12   0.00     0.26   0.01  -0.00     0.20  -0.06  -0.00
   6   6     0.24  -0.48  -0.00     0.06   0.29  -0.00     0.00   0.04   0.00
   7   6    -0.01   0.07   0.00    -0.01  -0.21   0.00    -0.19   0.00  -0.00
   8   6    -0.16  -0.25  -0.00    -0.05   0.29  -0.00     0.00  -0.04  -0.00
   9   7    -0.20   0.29  -0.00    -0.16  -0.04  -0.00     0.13  -0.14   0.00
  10   6     0.11  -0.20   0.00    -0.08  -0.29  -0.00     0.09   0.35   0.00
  11   6     0.12  -0.01   0.00     0.31   0.21   0.00    -0.24  -0.35  -0.00
  12   6     0.02   0.17  -0.00    -0.25   0.02  -0.00     0.21   0.05   0.00
  13   9     0.00  -0.00  -0.00     0.00   0.01   0.01     0.01  -0.00   0.00
  14   9     0.00  -0.00   0.00     0.00   0.01  -0.01     0.01  -0.00  -0.00
  15   1    -0.19  -0.01   0.00    -0.12  -0.06   0.00    -0.15  -0.06   0.00
  16   1    -0.02   0.00   0.00    -0.09  -0.16   0.00    -0.07  -0.19   0.00
  17   1    -0.05   0.04   0.00    -0.12  -0.04   0.00    -0.14  -0.07   0.00
  18   1     0.09   0.01   0.00    -0.00  -0.06  -0.00     0.08  -0.00   0.00
  19   1     0.11  -0.04   0.00     0.12  -0.06   0.00    -0.15   0.07  -0.00
  20   1     0.04  -0.02   0.00     0.09  -0.16   0.00    -0.06   0.20  -0.00
  21   1     0.08   0.03   0.00     0.11  -0.05   0.00    -0.13   0.07  -0.00
                     46                     47                     48
                        a                      a                      a 
 Frequencies --  1420.1573              1499.9476              1500.7387
 Red. masses --    11.8782                11.8998                11.3886
 Frc consts  --     0.0000                 0.0000                 0.0000
 IR Inten    --    82.0789                15.2667                20.9128
 Raman Activ --     0.0000                 0.0000                 0.0000
 Depolar     --     0.0000                 0.0000                 0.0000
 Atom AN      X      Y      Z        X      Y      Z        X      Y      Z
   1   5     0.00   0.02   0.00     0.00   0.00  -0.00     0.03  -0.00   0.00
   2   7     0.24  -0.06  -0.00    -0.38  -0.05   0.00    -0.21   0.01   0.00
   3   6    -0.28   0.12   0.00     0.40   0.03  -0.00     0.29   0.02  -0.00
   4   6    -0.12  -0.42   0.00    -0.20  -0.24   0.00    -0.23  -0.23   0.00
   5   6     0.21   0.29  -0.00     0.04   0.23  -0.00     0.25   0.22  -0.00
   6   6     0.00   0.06   0.00     0.34   0.01  -0.00    -0.00  -0.05   0.00
   7   6    -0.00  -0.07   0.00    -0.02  -0.08   0.00    -0.11   0.01  -0.00
   8   6    -0.00   0.06   0.00    -0.32   0.04  -0.00     0.09   0.04   0.00
   9   7    -0.25  -0.04  -0.00     0.31  -0.07   0.00    -0.30   0.03  -0.00
  10   6     0.29   0.10   0.00    -0.30   0.04  -0.00     0.38  -0.04   0.00
  11   6     0.10  -0.43   0.00     0.12  -0.17   0.00    -0.26   0.31  -0.00
  12   6    -0.20   0.30  -0.00     0.03   0.16  -0.00     0.24  -0.29   0.00
  13   9     0.00   0.01   0.01     0.00  -0.01  -0.01     0.00   0.00   0.00
  14   9     0.00   0.01  -0.01     0.00  -0.01   0.00     0.00   0.00  -0.00
  15   1     0.06  -0.01  -0.00    -0.10   0.07   0.00    -0.10   0.05   0.00
  16   1    -0.04   0.08   0.00    -0.06   0.10   0.00    -0.07   0.07   0.00
  17   1    -0.05   0.06  -0.00    -0.03   0.07   0.00    -0.09   0.03   0.00
  18   1    -0.00  -0.02  -0.00     0.01  -0.03   0.00     0.08   0.00   0.00
  19   1    -0.05  -0.00  -0.00     0.07   0.05   0.00    -0.12  -0.06  -0.00
  20   1     0.04   0.08   0.00     0.04   0.08   0.00    -0.09  -0.09  -0.00
  21   1     0.05   0.06   0.00     0.01   0.05   0.00    -0.09  -0.04  -0.00
                     49                     50                     51
                        a                      a                      a 
 Frequencies --  1543.4270              1593.0921              3098.3237
 Red. masses --    11.6873                11.8330                 1.8357
 Frc consts  --     0.0000                 0.0000                 0.0000
 IR Inten    --     3.6701               552.4476                 3.3470
 Raman Activ --     0.0000                 0.0000                 0.0000
 Depolar     --     0.0000                 0.0000                 0.0000
 Atom AN      X      Y      Z        X      Y      Z        X      Y      Z
   1   5     0.00   0.02  -0.00     0.02  -0.00  -0.00     0.00   0.00   0.00
   2   7     0.12  -0.07  -0.00    -0.07   0.01   0.00    -0.00   0.00  -0.00
   3   6    -0.22   0.01   0.00     0.16  -0.01  -0.00     0.00   0.00  -0.00
   4   6     0.13   0.05  -0.00    -0.01   0.11  -0.00     0.00   0.00  -0.00
   5   6    -0.31  -0.07   0.00     0.08  -0.06  -0.00    -0.00   0.01   0.00
   6   6     0.46   0.22  -0.00    -0.46  -0.17   0.00     0.01  -0.01  -0.00
   7   6    -0.01  -0.26   0.00     0.63  -0.02   0.00    -0.01  -0.27   0.00
   8   6    -0.45   0.24  -0.00    -0.45   0.19  -0.00    -0.01  -0.00  -0.00
   9   7    -0.12  -0.07  -0.00    -0.07  -0.01  -0.00     0.00   0.00  -0.00
  10   6     0.22  -0.01   0.00     0.16  -0.00   0.00    -0.00   0.00  -0.00
  11   6    -0.13   0.05  -0.00    -0.01  -0.11   0.00    -0.00   0.00  -0.00
  12   6     0.30  -0.09   0.00     0.08   0.06   0.00     0.00   0.01   0.00
  13   9     0.00   0.01   0.01    -0.00   0.00   0.00     0.00   0.00   0.00
  14   9     0.00   0.01  -0.01    -0.00   0.00  -0.00     0.00   0.00  -0.00
  15   1     0.05  -0.03  -0.00    -0.01   0.02  -0.00    -0.00  -0.00   0.00
  16   1     0.04  -0.01  -0.00    -0.00  -0.01   0.00    -0.00   0.00   0.00
  17   1     0.09   0.03  -0.00    -0.03  -0.04   0.00     0.00  -0.02  -0.00
  18   1    -0.00  -0.08   0.00    -0.11   0.00  -0.00     0.02   0.96  -0.00
  19   1    -0.05  -0.03  -0.00    -0.00  -0.01  -0.00     0.00  -0.00   0.00
  20   1    -0.04  -0.01  -0.00     0.00   0.01  -0.00     0.00   0.00   0.00
  21   1    -0.09   0.03  -0.00    -0.03   0.04  -0.00    -0.00  -0.02  -0.00
                     52                     53                     54
                        a                      a                      a 
 Frequencies --  3161.2590              3161.7839              3165.2413
 Red. masses --     1.8172                 1.8149                 1.8739
 Frc consts  --     0.0000                 0.0000                 0.0000
 IR Inten    --     2.6173                 1.4265                 5.1031
 Raman Activ --     0.0000                 0.0000                 0.0000
 Depolar     --     0.0000                 0.0000                 0.0000
 Atom AN      X      Y      Z        X      Y      Z        X      Y      Z
   1   5    -0.00  -0.00   0.00    -0.00   0.00  -0.00    -0.00  -0.00   0.00
   2   7     0.00  -0.00  -0.00     0.00  -0.00  -0.00     0.00  -0.00  -0.00
   3   6    -0.05  -0.18   0.00    -0.01  -0.03   0.00    -0.04  -0.14   0.00
   4   6     0.13   0.00  -0.00     0.03   0.00  -0.00    -0.03   0.01   0.00
   5   6    -0.03   0.12  -0.00    -0.01   0.03   0.00     0.04  -0.17  -0.00
   6   6     0.00   0.00  -0.00     0.00   0.00  -0.00    -0.00   0.00   0.00
   7   6    -0.00   0.00  -0.00    -0.00  -0.00   0.00    -0.00  -0.00   0.00
   8   6    -0.00   0.00  -0.00     0.00  -0.00   0.00    -0.00  -0.00  -0.00
   9   7    -0.00  -0.00  -0.00     0.00   0.00   0.00     0.00   0.00   0.00
  10   6     0.01  -0.04   0.00    -0.04   0.18  -0.00    -0.02   0.10  -0.00
  11   6    -0.02   0.00  -0.00     0.14  -0.01   0.00    -0.01  -0.00  -0.00
  12   6     0.01   0.03   0.00    -0.04  -0.13  -0.00     0.03   0.11   0.00
  13   9     0.00   0.00   0.00     0.00  -0.00  -0.00     0.00   0.00   0.00
  14   9     0.00   0.00  -0.00     0.00  -0.00   0.00     0.00   0.00  -0.00
  15   1     0.18   0.64  -0.00     0.03   0.12  -0.00     0.14   0.49  -0.00
  16   1    -0.50   0.00   0.00    -0.11   0.00   0.00     0.12  -0.00  -0.00
  17   1     0.11  -0.43  -0.00     0.02  -0.10  -0.00    -0.15   0.60   0.00
  18   1    -0.00  -0.01   0.00    -0.00   0.01  -0.00     0.00   0.01  -0.00
  19   1    -0.03   0.14  -0.00     0.14  -0.62   0.00     0.08  -0.34   0.00
  20   1     0.09  -0.00   0.00    -0.51   0.02  -0.00     0.05  -0.00   0.00
  21   1    -0.03  -0.09  -0.00     0.14   0.46   0.00    -0.11  -0.36  -0.00
                     55                     56                     57
                        a                      a                      a 
 Frequencies --  3165.7769              3178.4224              3178.6818
 Red. masses --     1.8737                 1.9789                 1.9789
 Frc consts  --     0.0000                 0.0000                 0.0000
 IR Inten    --     6.8132                34.7107                31.9489
 Raman Activ --     0.0000                 0.0000                 0.0000
 Depolar     --     0.0000                 0.0000                 0.0000
 Atom AN      X      Y      Z        X      Y      Z        X      Y      Z
   1   5    -0.00   0.00  -0.00    -0.00  -0.00  -0.00     0.00  -0.00  -0.00
   2   7    -0.00   0.00   0.00     0.00  -0.00  -0.00     0.00  -0.00   0.00
   3   6     0.03   0.09  -0.00    -0.02  -0.10   0.00     0.00   0.00  -0.00
   4   6     0.03  -0.00  -0.00    -0.24  -0.00   0.00    -0.00  -0.00   0.00
   5   6    -0.03   0.11   0.00    -0.03   0.13  -0.00    -0.00   0.00  -0.00
   6   6     0.00   0.00  -0.00     0.01   0.00  -0.00     0.00   0.00  -0.00
   7   6    -0.00   0.01  -0.00    -0.00   0.00   0.00     0.00   0.00   0.00
   8   6    -0.01   0.00  -0.00    -0.00   0.00  -0.00    -0.01   0.00  -0.00
   9   7     0.00   0.00   0.00     0.00  -0.00   0.00    -0.00  -0.00  -0.00
  10   6    -0.03   0.15  -0.00    -0.00   0.01  -0.00     0.02  -0.10   0.00
  11   6    -0.03  -0.00  -0.00    -0.00  -0.00  -0.00     0.24  -0.01   0.00
  12   6     0.05   0.17   0.00     0.00   0.00  -0.00     0.03   0.13   0.00
  13   9     0.00  -0.00  -0.00     0.00   0.00   0.00    -0.00   0.00   0.00
  14   9     0.00  -0.00   0.00     0.00   0.00  -0.00    -0.00   0.00  -0.00
  15   1    -0.09  -0.31   0.00     0.08   0.30  -0.00    -0.00  -0.01   0.00
  16   1    -0.10   0.00   0.00     0.80  -0.00  -0.00     0.01  -0.00  -0.00
  17   1     0.10  -0.38  -0.00     0.10  -0.41  -0.00     0.00  -0.01  -0.00
  18   1    -0.00  -0.02   0.00    -0.00  -0.00   0.00     0.00  -0.01   0.00
  19   1     0.12  -0.51   0.00     0.00  -0.02   0.00    -0.07   0.31  -0.00
  20   1     0.11  -0.00   0.00     0.01  -0.00   0.00    -0.80   0.03  -0.00
  21   1    -0.18  -0.58  -0.00    -0.00  -0.00  -0.00    -0.12  -0.39  -0.00
