      -----------------------------------------------------------      
     |                   =====================                   |     
     |                           x T B                           |     
     |                   =====================                   |     
     |                         S. Grimme                         |     
     |          Mulliken Center for Theoretical Chemistry        |     
     |                    University of Bonn                     |     
      -----------------------------------------------------------      

   * xtb version 6.6.1 (8d0f1dd) compiled by 'conda@1efc2f54142f' on 2023-08-01

   xtb is free software: you can redistribute it and/or modify it under
   the terms of the GNU Lesser General Public License as published by
   the Free Software Foundation, either version 3 of the License, or
   (at your option) any later version.
   
   xtb is distributed in the hope that it will be useful,
   but WITHOUT ANY WARRANTY; without even the implied warranty of
   MERCHANTABILITY or FITNESS FOR A PARTICULAR PURPOSE.  See the
   GNU Lesser General Public License for more details.
   
   Cite this work as:
   * C. Bannwarth, E. Caldeweyher, S. Ehlert, A. Hansen, P. Pracht,
     J. Seibert, S. Spicher, S. Grimme, WIREs Comput. Mol. Sci., 2020, 11,
     e01493. DOI: 10.1002/wcms.1493
   
   for GFN2-xTB:
   * C. Bannwarth, S. Ehlert and S. Grimme., J. Chem. Theory Comput., 2019,
     15, 1652-1671. DOI: 10.1021/acs.jctc.8b01176
   for GFN1-xTB:
   * S. Grimme, C. Bannwarth, P. Shushkov, J. Chem. Theory Comput., 2017,
     13, 1989-2009. DOI: 10.1021/acs.jctc.7b00118
   for GFN0-xTB:
   * P. Pracht, E. Caldeweyher, S. Ehlert, S. Grimme, ChemRxiv, 2019, preprint.
     DOI: 10.26434/chemrxiv.8326202.v1
   for GFN-FF:
   * S. Spicher and S. Grimme, Angew. Chem. Int. Ed., 2020, 59, 15665-15673.
     DOI: 10.1002/anie.202004239
   
   for ALPB and GBSA implicit solvation:
   * S. Ehlert, M. Stahn, S. Spicher, S. Grimme, J. Chem. Theory Comput.,
     2021, 17, 4250-4261. DOI: 10.1021/acs.jctc.1c00471
   
   for DFT-D4:
   * E. Caldeweyher, C. Bannwarth and S. Grimme, J. Chem. Phys., 2017,
     147, 034112. DOI: 10.1063/1.4993215
   * E. Caldeweyher, S. Ehlert, A. Hansen, H. Neugebauer, S. Spicher,
     C. Bannwarth and S. Grimme, J. Chem. Phys., 2019, 150, 154122.
     DOI: 10.1063/1.5090222
   * E. Caldeweyher, J.-M. Mewes, S. Ehlert and S. Grimme, Phys. Chem. Chem. Phys.
     2020, 22, 8499-8512. DOI: 10.1039/D0CP00502A
   
   for sTDA-xTB:
   * S. Grimme and C. Bannwarth, J. Chem. Phys., 2016, 145, 054103.
     DOI: 10.1063/1.4959605
   
   in the mass-spec context:
   * V. Asgeirsson, C. Bauer and S. Grimme, Chem. Sci., 2017, 8, 4879.
     DOI: 10.1039/c7sc00601b
   * J. Koopman and S. Grimme, ACS Omega 2019, 4, 12, 15120-15133.
     DOI: 10.1021/acsomega.9b02011
   
   for metadynamics refer to:
   * S. Grimme, J. Chem. Theory Comput., 2019, 155, 2847-2862
     DOI: 10.1021/acs.jctc.9b00143
   
   for SPH calculations refer to:
   * S. Spicher and S. Grimme, J. Chem. Theory Comput., 2021, 17, 1701-1714
     DOI: 10.1021/acs.jctc.0c01306
   
   with help from (in alphabetical order)
   P. Atkinson, C. Bannwarth, F. Bohle, G. Brandenburg, E. Caldeweyher
   M. Checinski, S. Dohm, S. Ehlert, S. Ehrlich, I. Gerasimov, C. Hölzer
   A. Katbashev, J. Koopman, C. Lavigne, S. Lehtola, F. März, M. Müller,
   F. Musil, H. Neugebauer, J. Pisarek, C. Plett, P. Pracht, F. Pultar,
   J. Seibert, P. Shushkov, S. Spicher, M. Stahn, M. Steiner, T. Strunk,
   J. Stückrath, T. Rose, and J. Unsleber
   
 * started run on 2024/08/18 at 15:26:03.828     

           -------------------------------------------------
          |                Calculation Setup                |
           -------------------------------------------------

          program call               : xtb crest_best.xyz --gfn 2 --opt vtight --parallel 4 --alpb Toluene
          coordinate file            : crest_best.xyz
          omp threads                :                     4

   ID    Z sym.   atoms
    1    5 B      1
    2    7 N      2, 9
    3    6 C      3-8, 10-12
    4    9 F      13, 14
    5    1 H      15-21

           -------------------------------------------------
          |                 G F N 2 - x T B                 |
           -------------------------------------------------

        Reference                      10.1021/acs.jctc.8b01176
      * Hamiltonian:
        H0-scaling (s, p, d)           1.850000    2.230000    2.230000
        zeta-weighting                 0.500000
      * Dispersion:
        s8                             2.700000
        a1                             0.520000
        a2                             5.000000
        s9                             5.000000
      * Repulsion:
        kExp                           1.500000    1.000000
        rExp                           1.000000
      * Coulomb:
        alpha                          2.000000
        third order                    shell-resolved
        anisotropic                    true
        a3                             3.000000
        a5                             4.000000
        cn-shift                       1.200000
        cn-exp                         4.000000
        max-rad                        5.000000

      * Solvation model:               ALPB
        Solvent                        Toluene
        Parameter file                 internal GFN2-xTB/ALPB
        Dielectric constant                7.0000E+00
        Reference state                gsolv [1 M gas/solution]
        Free energy shift                  2.2081E-03 Eh       1.3856E+00 kcal/mol
        Temperature                        2.9815E+02 K
        Density                            8.6700E-01 kg/L
        Solvent mass                       7.8110E+01 g/mol
        Interaction kernel             P16
        Born radius scaling (c1)           1.7172E+00
        Born radii integrator          GBOBC
        Born offset                        0.0000E+00 a0       0.0000E+00 AA
        H-bond correction              false
        Ion screening                  false
        Surface tension                    1.0000E-05 Eh       1.5569E+01 dyn/cm
        Grid points                               230 per atom

          ...................................................
          :                      SETUP                      :
          :.................................................:
          :  # basis functions                  63          :
          :  # atomic orbitals                  63          :
          :  # shells                           35          :
          :  # electrons                        70          :
          :  max. iterations                   250          :
          :  Hamiltonian                  GFN2-xTB          :
          :  restarted?                      false          :
          :  GBSA solvation                   true          :
          :  PC potential                    false          :
          :  electronic temp.          300.0000000     K    :
          :  accuracy                    1.0000000          :
          :  -> integral cutoff          0.2500000E+02      :
          :  -> integral neglect         0.1000000E-07      :
          :  -> SCF convergence          0.1000000E-05 Eh   :
          :  -> wf. convergence          0.1000000E-03 e    :
          :  Broyden damping             0.4000000          :
          ...................................................

 iter      E             dE          RMSdq      gap      omega  full diag
   1    -39.9087353 -0.399087E+02  0.566E+00    1.98       0.0  T
   2    -40.0426967 -0.133961E+00  0.384E+00    1.71       1.0  T
   3    -40.0389482  0.374855E-02  0.163E+00    1.94       1.0  T
   4    -40.0615018 -0.225536E-01  0.657E-01    1.74       1.0  T
   5    -40.0683138 -0.681201E-02  0.238E-01    1.81       1.0  T
   6    -40.0685657 -0.251948E-03  0.100E-01    1.79       1.0  T
   7    -40.0686288 -0.630590E-04  0.464E-02    1.80       1.0  T
   8    -40.0686579 -0.290919E-04  0.124E-02    1.79       1.8  T
   9    -40.0686601 -0.221596E-05  0.498E-03    1.80       4.4  T
  10    -40.0686601 -0.180753E-07  0.226E-03    1.80       9.7  T
  11    -40.0686602 -0.436372E-07  0.100E-03    1.80      21.8  T
  12    -40.0686602 -0.270838E-07  0.166E-04    1.80     131.4  T
  13    -40.0686602  0.263441E-09  0.150E-04    1.80     145.6  T

   *** convergence criteria satisfied after 13 iterations ***

         #    Occupation            Energy/Eh            Energy/eV
      -------------------------------------------------------------
         1        2.0000           -0.7797700             -21.2186
       ...           ...                  ...                  ...
        29        2.0000           -0.4612184             -12.5504
        30        2.0000           -0.4598756             -12.5139
        31        2.0000           -0.4548860             -12.3781
        32        2.0000           -0.4420468             -12.0287
        33        2.0000           -0.4267611             -11.6128
        34        2.0000           -0.4261364             -11.5958
        35        2.0000           -0.3982080             -10.8358 (HOMO)
        36                         -0.3322254              -9.0403 (LUMO)
        37                         -0.2175961              -5.9211
        38                         -0.1938570              -5.2751
        39                         -0.1781858              -4.8487
        40                         -0.1351100              -3.6765
       ...                                ...                  ...
        63                          0.6908899              18.8001
      -------------------------------------------------------------
                  HL-Gap            0.0659826 Eh            1.7955 eV
             Fermi-level           -0.3652167 Eh           -9.9381 eV

 SCC (total)                   0 d,  0 h,  0 min,  0.017 sec
 SCC setup                      ...        0 min,  0.000 sec (  2.156%)
 Dispersion                     ...        0 min,  0.000 sec (  1.062%)
 classical contributions        ...        0 min,  0.000 sec (  0.133%)
 integral evaluation            ...        0 min,  0.001 sec (  6.670%)
 iterations                     ...        0 min,  0.013 sec ( 75.506%)
 molecular gradient             ...        0 min,  0.002 sec ( 13.755%)
 printout                       ...        0 min,  0.000 sec (  0.641%)

         :::::::::::::::::::::::::::::::::::::::::::::::::::::
         ::                     SUMMARY                     ::
         :::::::::::::::::::::::::::::::::::::::::::::::::::::
         :: total energy             -39.549058254886 Eh    ::
         :: total w/o Gsasa/hb       -39.537029596477 Eh    ::
         :: gradient norm              0.009139633166 Eh/a0 ::
         :: HOMO-LUMO gap              1.795477834127 eV    ::
         ::.................................................::
         :: SCC energy               -40.068660196633 Eh    ::
         :: -> isotropic ES            0.090938895798 Eh    ::
         :: -> anisotropic ES         -0.004345086626 Eh    ::
         :: -> anisotropic XC          0.011433855088 Eh    ::
         :: -> dispersion             -0.021074030376 Eh    ::
         :: -> Gsolv                  -0.019299004246 Eh    ::
         ::    -> Gelec               -0.007270345837 Eh    ::
         ::    -> Gsasa               -0.014236801548 Eh    ::
         ::    -> Ghb                  0.000000000000 Eh    ::
         ::    -> Gshift               0.002208143139 Eh    ::
         :: repulsion energy           0.519563469471 Eh    ::
         :: add. restraining           0.000000000000 Eh    ::
         :: total charge              -0.000000000000 e     ::
         :::::::::::::::::::::::::::::::::::::::::::::::::::::

      ----------------------------------------------------------- 
     |                   =====================                   |
     |                        A N C O P T                        |
     |                   =====================                   |
     |               Approximate Normal Coordinate               |
     |                Rational Function Optimizer                |
      ----------------------------------------------------------- 

          ...................................................
          :                      SETUP                      :
          :.................................................:
          :   optimization level         verytight          :
          :   max. optcycles                   420          :
          :   ANC micro-cycles                  20          :
          :   degrees of freedom                57          :
          :.................................................:
          :   RF solver                   davidson          :
          :   write xtbopt.log                true          :
          :   linear?                        false          :
          :   energy convergence         0.1000000E-06 Eh   :
          :   grad. convergence          0.2000000E-03 Eh/α :
          :   maxmium RF displ.          1.0000000          :
          :   Hlow (freq-cutoff)         0.1000000E-01      :
          :   Hmax (freq-cutoff)         5.0000000          :
          :   S6 in model hess.         20.0000000          :
          ...................................................

generating ANC from model Hessian ...
Using Lindh-Hessian (1995)
 Shifting diagonal of input Hessian by    6.3487470677515371E-003
 Lowest  eigenvalues of input Hessian
    0.000000    0.000000    0.000000    0.000000    0.000000    0.000000
    0.010000    0.011601    0.016759    0.021847    0.023087    0.026243
    0.028430    0.033757    0.044444    0.049675    0.058685    0.064781
 Highest eigenvalues
    1.900429    1.939540    1.983271    1.993415    2.061327    2.184243


........................................................................
.............................. CYCLE    1 ..............................
........................................................................

 iter      E             dE          RMSdq      gap      omega  full diag
   1    -40.0686602 -0.400687E+02  0.233E-05    1.80       0.0  T
   2    -40.0686602 -0.706279E-11  0.138E-05    1.80    1584.3  T
   3    -40.0686602 -0.248690E-11  0.794E-06    1.80    2749.7  T
     SCC iter.                  ...        0 min,  0.004 sec
     gradient                   ...        0 min,  0.002 sec
 * total energy  :   -39.5490583 Eh     change       -0.4723759E-09 Eh
   gradient norm :     0.0091398 Eh/α   predicted     0.0000000E+00 (-100.00%)
   displ. norm   :     0.0118137 α      lambda       -0.6122320E-04
   maximum displ.:     0.0053671 α      in ANC's #10, #46, #27, ...

........................................................................
.............................. CYCLE    2 ..............................
........................................................................

 iter      E             dE          RMSdq      gap      omega  full diag
   1    -40.0673999 -0.400674E+02  0.210E-02    1.79       0.0  T
   2    -40.0674011 -0.126124E-05  0.114E-02    1.79       1.9  T
   3    -40.0674011  0.283793E-07  0.610E-03    1.79       3.6  T
   4    -40.0674014 -0.340422E-06  0.219E-03    1.79       9.9  T
   5    -40.0674015 -0.262405E-07  0.113E-03    1.79      19.3  T
   6    -40.0674015 -0.862072E-08  0.292E-04    1.79      74.8  T
   7    -40.0674015 -0.620581E-09  0.141E-04    1.79     155.2  T
     SCC iter.                  ...        0 min,  0.007 sec
     gradient                   ...        0 min,  0.002 sec
 * total energy  :   -39.5491122 Eh     change       -0.5397361E-04 Eh
   gradient norm :     0.0059031 Eh/α   predicted    -0.3401069E-04 ( -36.99%)
   displ. norm   :     0.0151742 α      lambda       -0.6850767E-04
   maximum displ.:     0.0084340 α      in ANC's #46, #30, #1, ...

........................................................................
.............................. CYCLE    3 ..............................
........................................................................

 iter      E             dE          RMSdq      gap      omega  full diag
   1    -40.0664011 -0.400664E+02  0.278E-02    1.79       0.0  T
   2    -40.0664044 -0.331712E-05  0.143E-02    1.79       1.5  T
   3    -40.0664046 -0.224010E-06  0.841E-03    1.79       2.6  T
   4    -40.0664051 -0.521395E-06  0.371E-03    1.79       5.9  T
   5    -40.0664052 -0.543081E-07  0.195E-03    1.79      11.2  T
   6    -40.0664052 -0.283018E-07  0.508E-04    1.79      43.0  T
   7    -40.0664052 -0.147782E-08  0.233E-04    1.79      93.6  T
     SCC iter.                  ...        0 min,  0.007 sec
     gradient                   ...        0 min,  0.002 sec
 * total energy  :   -39.5491490 Eh     change       -0.3675614E-04 Eh
   gradient norm :     0.0008977 Eh/α   predicted    -0.3448131E-04 (  -6.19%)
   displ. norm   :     0.0069505 α      lambda       -0.2017244E-05
   maximum displ.:     0.0042049 α      in ANC's #6, #10, #1, ...

........................................................................
.............................. CYCLE    4 ..............................
........................................................................

 iter      E             dE          RMSdq      gap      omega  full diag
   1    -40.0667612 -0.400668E+02  0.442E-03    1.79       0.0  T
   2    -40.0667614 -0.141630E-06  0.301E-03    1.79       7.3  T
   3    -40.0667614 -0.150058E-07  0.179E-03    1.79      12.2  T
   4    -40.0667614  0.494219E-08  0.983E-04    1.79      22.2  T
   5    -40.0667614 -0.840840E-08  0.372E-04    1.79      58.6  T
     SCC iter.                  ...        0 min,  0.006 sec
     gradient                   ...        0 min,  0.002 sec
 * total energy  :   -39.5491505 Eh     change       -0.1507291E-05 Eh
   gradient norm :     0.0002254 Eh/α   predicted    -0.1014557E-05 ( -32.69%)
   displ. norm   :     0.0032847 α      lambda       -0.1942026E-06
   maximum displ.:     0.0023672 α      in ANC's #6, #1, #15, ...

........................................................................
.............................. CYCLE    5 ..............................
........................................................................

 iter      E             dE          RMSdq      gap      omega  full diag
   1    -40.0668292 -0.400668E+02  0.247E-03    1.79       0.0  T
   2    -40.0668292 -0.970687E-08  0.151E-03    1.79      14.5  T
   3    -40.0668292  0.297880E-08  0.707E-04    1.79      30.9  T
   4    -40.0668292 -0.589794E-08  0.179E-04    1.79     121.7  T
     SCC iter.                  ...        0 min,  0.005 sec
     gradient                   ...        0 min,  0.002 sec
 * total energy  :   -39.5491506 Eh     change       -0.1321173E-06 Eh
   gradient norm :     0.0000923 Eh/α   predicted    -0.9903967E-07 ( -25.04%)
   displ. norm   :     0.0014575 α      lambda       -0.2982711E-07
   maximum displ.:     0.0010368 α      in ANC's #1, #6, #7, ...

........................................................................
.............................. CYCLE    6 ..............................
........................................................................

 iter      E             dE          RMSdq      gap      omega  full diag
   1    -40.0667880 -0.400668E+02  0.899E-04    1.79       0.0  T
   2    -40.0667880 -0.200444E-09  0.519E-04    1.79      42.1  T
   3    -40.0667880  0.386144E-09  0.162E-04    1.79     134.9  T
     SCC iter.                  ...        0 min,  0.004 sec
     gradient                   ...        0 min,  0.002 sec
 * total energy  :   -39.5491506 Eh     change       -0.2384422E-07 Eh
   gradient norm :     0.0000522 Eh/α   predicted    -0.1586565E-07 ( -33.46%)
   displ. norm   :     0.0014637 α      lambda       -0.1099419E-08
   maximum displ.:     0.0013830 α      in ANC's #1, #3, #6, ...

   *** GEOMETRY OPTIMIZATION CONVERGED AFTER 6 ITERATIONS ***

------------------------------------------------------------------------
 total energy gain   :        -0.0000924 Eh       -0.0580 kcal/mol
 total RMSD          :         0.0059945 a0        0.0032 Å
 total power (kW/mol):        -0.0404298 (step)   -4.1487 (real)
------------------------------------------------------------------------

 ANCopt (total)                0 d,  0 h,  0 min,  0.059 sec
 optimizer setup                ...        0 min,  0.000 sec (  0.243%)
 model hessian                  ...        0 min,  0.004 sec (  6.144%)
 ANC generation                 ...        0 min,  0.000 sec (  0.793%)
 coordinate transformation      ...        0 min,  0.000 sec (  0.070%)
 single point calculation       ...        0 min,  0.053 sec ( 89.985%)
 optimization log               ...        0 min,  0.001 sec (  1.595%)
 hessian update                 ...        0 min,  0.000 sec (  0.081%)
 rational function              ...        0 min,  0.000 sec (  0.568%)

================
 final structure:
================
21
 xtb: 6.6.1 (8d0f1dd)
B           -0.00001023556420       -1.13810333871438        0.00013278434619
N            1.24567547444451       -0.22836183469576        0.00109536718586
C            2.52004172728225       -0.60582482446873        0.00269124662008
C            3.35738263890909        0.51784519098742        0.00230849497198
C            2.54013682633628        1.62578129620504        0.00021126227798
C            1.20546007621318        1.15284719107412       -0.00043398281561
C            0.00001339071465        1.83628185973815       -0.00145166454744
C           -1.20544582251231        1.15286521767454       -0.00047948449845
N           -1.24568255302803       -0.22834232425476        0.00108277018968
C           -2.52005574920044       -0.60578678310265        0.00265446324558
C           -3.35737792187287        0.51789631272878        0.00222576614798
C           -2.54011414147072        1.62582003616370        0.00011182418182
F           -0.00001956512989       -1.94849490320049        1.12750533772913
F           -0.00001283957943       -1.94581895919862       -1.12925512090453
H            2.78559591950708       -1.64623393171237        0.00409724550469
H            4.42919009282070        0.49575491296631        0.00347599365330
H            2.83040033149013        2.65809489015446       -0.00061589933310
H            0.00002140696682        2.91612561615402       -0.00270114083646
H           -2.78562612197303       -1.64619129217347        0.00409148178309
H           -4.42918552445639        0.49582285553071        0.00336846641132
H           -2.83036169829738        2.65813808014398       -0.00075686481310

 Bond Distances (Angstroems)
 ---------------------------
B1-N2=1.5425         B1-N9=1.5425         B1-F13=1.3884        B1-F14=1.3885        N2-B1=1.5425         N2-C3=1.3291         
N2-C6=1.3818         C3-N2=1.3291         C3-C4=1.4013         C3-H15=1.0738        C4-C3=1.4013         C4-C5=1.3767         
C4-H16=1.0720        C5-C4=1.3767         C5-C6=1.4160         C5-H17=1.0723        C6-N2=1.3818         C6-C5=1.4160         
C6-C7=1.3857         C7-C6=1.3857         C7-C8=1.3857         C7-H18=1.0798        C8-C7=1.3857         C8-N9=1.3818         
C8-C12=1.4160        N9-B1=1.5425         N9-C8=1.3818         N9-C10=1.3291        C10-N9=1.3291        C10-C11=1.4013       
C10-H19=1.0738       C11-C10=1.4013       C11-C12=1.3767       C11-H20=1.0720       C12-C8=1.4160        C12-C11=1.3767       
C12-H21=1.0723       F13-B1=1.3884        F14-B1=1.3885        H15-C3=1.0738        H16-C4=1.0720        H17-C5=1.0723        
H18-C7=1.0798        H19-C10=1.0738       H20-C11=1.0720       H21-C12=1.0723       
 C  H  Rav=1.0737 sigma=0.0026  Rmin=1.0720  Rmax=1.0798     7
 C  C  Rav=1.3949 sigma=0.0150  Rmin=1.3767  Rmax=1.4160     8
 N  B  Rav=1.5425 sigma=0.0000  Rmin=1.5425  Rmax=1.5425     2
 N  C  Rav=1.3554 sigma=0.0264  Rmin=1.3291  Rmax=1.3818     4
 F  B  Rav=1.3885 sigma=0.0000  Rmin=1.3884  Rmax=1.3885     2

 selected bond angles (degree)
 --------------------
N9-B1-N2=107.72                F13-B1-N2=110.10               F13-B1-N9=110.11               F14-B1-N2=110.10               
F14-B1-N9=110.10               F14-B1-F13=108.72              C3-N2-B1=127.36                C6-N2-B1=124.47                
C6-N2-C3=108.17                C4-C3-N2=110.19                H15-C3-N2=120.82               H15-C3-C4=128.99               
C5-C4-C3=106.89                H16-C4-C3=125.51               H16-C4-C5=127.59               C6-C5-C4=106.90                
H17-C5-C4=127.88               H17-C5-C6=125.22               C5-C6-N2=107.84                C7-C6-N2=121.22                
C7-C6-C5=130.94                C8-C7-C6=120.90                H18-C7-C6=119.55               H18-C7-C8=119.55               
N9-C8-C7=121.22                C12-C8-C7=130.94               C12-C8-N9=107.84               C8-N9-B1=124.47                
C10-N9-B1=127.36               C10-N9-C8=108.17               C11-C10-N9=110.19              H19-C10-N9=120.82              
H19-C10-C11=128.99             

 selected dihedral angles (degree)
 ---------------------------------
C3-N2-B1-N9=179.89            C3-N2-B1-F13= 59.81           C3-N2-B1-F14=299.96           C6-N2-B1-N9=359.85            
C6-N2-B1-F13=239.77           C6-N2-B1-F14=119.91           C4-C3-N2-B1=179.97            C4-C3-N2-C6=  0.00            
H15-C3-N2-B1=359.96           H15-C3-N2-C6=180.00           C5-C4-C3-N2=  0.00            C5-C4-C3-H15=180.00           
H16-C4-C3-N2=179.99           H16-C4-C3-H15=  0.00          C6-C5-C4-C3=  0.00            C6-C5-C4-H16=180.01           
H17-C5-C4-C3=180.00           H17-C5-C4-H16=  0.00          C5-C6-N2-B1=180.04            C5-C6-N2-C3=  0.00            
C7-C6-N2-B1=  0.08            C7-C6-N2-C3=180.04            N2-C6-C5-C4=  0.00            N2-C6-C5-H17=180.00           
C7-C6-C5-C4=179.95            C7-C6-C5-H17=359.96           C8-C7-C6-N2=  0.02            C8-C7-C6-C5=180.07            
H18-C7-C6-N2=180.00           H18-C7-C6-C5=  0.05           N9-C8-C7-C6=  0.00            N9-C8-C7-H18=180.00           
C12-C8-C7-C6=179.93           C12-C8-C7-H18=359.95          C8-N9-B1-N2=  0.15            C8-N9-B1-F13=120.23           
C8-N9-B1-F14=240.09           C10-N9-B1-N2=180.11           C10-N9-B1-F13=300.19          C10-N9-B1-F14= 60.04          
B1-N9-C8-C7=359.92            B1-N9-C8-C12=179.96           C10-N9-C8-C7=179.96           C10-N9-C8-C12=  0.00          
C11-C10-N9-B1=180.04          C11-C10-N9-C8=  0.00          H19-C10-N9-B1=  0.04          H19-C10-N9-C8=180.00          
           -------------------------------------------------
          |                Final Singlepoint                |
           -------------------------------------------------

          ...................................................
          :                      SETUP                      :
          :.................................................:
          :  # basis functions                  63          :
          :  # atomic orbitals                  63          :
          :  # shells                           35          :
          :  # electrons                        70          :
          :  max. iterations                   250          :
          :  Hamiltonian                  GFN2-xTB          :
          :  restarted?                      false          :
          :  GBSA solvation                   true          :
          :  PC potential                    false          :
          :  electronic temp.          300.0000000     K    :
          :  accuracy                    1.0000000          :
          :  -> integral cutoff          0.2500000E+02      :
          :  -> integral neglect         0.1000000E-07      :
          :  -> SCF convergence          0.1000000E-05 Eh   :
          :  -> wf. convergence          0.1000000E-03 e    :
          :  Broyden damping             0.4000000          :
          ...................................................

 iter      E             dE          RMSdq      gap      omega  full diag
   1    -40.0667880 -0.400668E+02  0.341E-05    1.79       0.0  T
   2    -40.0667880 -0.561329E-12  0.301E-05    1.79     724.7  T
   3    -40.0667880 -0.192912E-10  0.784E-06    1.79    2784.9  T

   *** convergence criteria satisfied after 3 iterations ***

         #    Occupation            Energy/Eh            Energy/eV
      -------------------------------------------------------------
         1        2.0000           -0.7777437             -21.1635
       ...           ...                  ...                  ...
        29        2.0000           -0.4604248             -12.5288
        30        2.0000           -0.4591206             -12.4933
        31        2.0000           -0.4545040             -12.3677
        32        2.0000           -0.4422835             -12.0351
        33        2.0000           -0.4272117             -11.6250
        34        2.0000           -0.4266091             -11.6086
        35        2.0000           -0.3989515             -10.8560 (HOMO)
        36                         -0.3331161              -9.0646 (LUMO)
        37                         -0.2186140              -5.9488
        38                         -0.1948486              -5.3021
        39                         -0.1788629              -4.8671
        40                         -0.1360921              -3.7033
       ...                                ...                  ...
        63                          0.6895228              18.7629
      -------------------------------------------------------------
                  HL-Gap            0.0658354 Eh            1.7915 eV
             Fermi-level           -0.3660338 Eh           -9.9603 eV

 SCC (total)                   0 d,  0 h,  0 min,  0.007 sec
 SCC setup                      ...        0 min,  0.000 sec (  2.698%)
 Dispersion                     ...        0 min,  0.000 sec (  1.077%)
 classical contributions        ...        0 min,  0.000 sec (  0.212%)
 integral evaluation            ...        0 min,  0.001 sec ( 12.404%)
 iterations                     ...        0 min,  0.004 sec ( 52.131%)
 molecular gradient             ...        0 min,  0.002 sec ( 30.107%)
 printout                       ...        0 min,  0.000 sec (  1.183%)

         :::::::::::::::::::::::::::::::::::::::::::::::::::::
         ::                     SUMMARY                     ::
         :::::::::::::::::::::::::::::::::::::::::::::::::::::
         :: total energy             -39.549150648837 Eh    ::
         :: total w/o Gsasa/hb       -39.537125092219 Eh    ::
         :: gradient norm              0.000049713542 Eh/a0 ::
         :: HOMO-LUMO gap              1.791472301644 eV    ::
         ::.................................................::
         :: SCC energy               -40.066788008564 Eh    ::
         :: -> isotropic ES            0.092335028507 Eh    ::
         :: -> anisotropic ES         -0.004551375826 Eh    ::
         :: -> anisotropic XC          0.011536888896 Eh    ::
         :: -> dispersion             -0.021064156708 Eh    ::
         :: -> Gsolv                  -0.019624485955 Eh    ::
         ::    -> Gelec               -0.007598929337 Eh    ::
         ::    -> Gsasa               -0.014233699756 Eh    ::
         ::    -> Ghb                  0.000000000000 Eh    ::
         ::    -> Gshift               0.002208143139 Eh    ::
         :: repulsion energy           0.517598965802 Eh    ::
         :: add. restraining           0.000000000000 Eh    ::
         :: total charge               0.000000000000 e     ::
         :::::::::::::::::::::::::::::::::::::::::::::::::::::

           -------------------------------------------------
          |                Property Printout                |
           -------------------------------------------------

    * Orbital Energies and Occupations

         #    Occupation            Energy/Eh            Energy/eV
      -------------------------------------------------------------
         1        2.0000           -0.7777437             -21.1635
       ...           ...                  ...                  ...
        23        2.0000           -0.4932568             -13.4222
        24        2.0000           -0.4822797             -13.1235
        25        2.0000           -0.4778466             -13.0029
        26        2.0000           -0.4772279             -12.9860
        27        2.0000           -0.4679607             -12.7339
        28        2.0000           -0.4679344             -12.7331
        29        2.0000           -0.4604248             -12.5288
        30        2.0000           -0.4591206             -12.4933
        31        2.0000           -0.4545040             -12.3677
        32        2.0000           -0.4422835             -12.0351
        33        2.0000           -0.4272117             -11.6250
        34        2.0000           -0.4266091             -11.6086
        35        2.0000           -0.3989515             -10.8560 (HOMO)
        36                         -0.3331161              -9.0646 (LUMO)
        37                         -0.2186140              -5.9488
        38                         -0.1948486              -5.3021
        39                         -0.1788629              -4.8671
        40                         -0.1360921              -3.7033
        41                          0.0385524               1.0491
        42                          0.0428670               1.1665
        43                          0.0815637               2.2195
        44                          0.0955936               2.6012
        45                          0.1146592               3.1200
        46                          0.1322016               3.5974
       ...                                ...                  ...
        63                          0.6895228              18.7629
      -------------------------------------------------------------
                  HL-Gap            0.0658354 Eh            1.7915 eV
             Fermi-level           -0.3660338 Eh           -9.9603 eV

     #   Z          covCN         q      C6AA      α(0)
     1   5 B        3.112     0.523    14.263     6.299
     2   7 N        2.748    -0.095    23.100     7.138
     3   6 C        3.073     0.044    26.940     8.510
     4   6 C        3.033    -0.049    29.178     8.860
     5   6 C        3.035    -0.039    28.928     8.822
     6   6 C        3.129     0.048    26.722     8.464
     7   6 C        2.900    -0.015    28.381     8.735
     8   6 C        3.129     0.048    26.722     8.464
     9   7 N        2.748    -0.095    23.100     7.138
    10   6 C        3.073     0.044    26.940     8.510
    11   6 C        3.033    -0.049    29.178     8.860
    12   6 C        3.035    -0.039    28.928     8.822
    13   9 F        0.721    -0.394    13.452     4.331
    14   9 F        0.721    -0.394    13.452     4.331
    15   1 H        0.926     0.066     2.128     2.281
    16   1 H        0.926     0.058     2.227     2.334
    17   1 H        0.926     0.063     2.170     2.303
    18   1 H        0.926     0.088     1.902     2.156
    19   1 H        0.926     0.066     2.128     2.281
    20   1 H        0.926     0.058     2.227     2.334
    21   1 H        0.926     0.063     2.170     2.303

 Mol. C6AA /au·bohr⁶  :       6124.387315
 Mol. C8AA /au·bohr⁸  :     151797.569909
 Mol. α(0) /au        :        123.276218


Wiberg/Mayer (AO) data.
largest (>0.10) Wiberg bond orders for each atom

 ---------------------------------------------------------------------------
     #   Z sym  total        # sym  WBO       # sym  WBO       # sym  WBO
 ---------------------------------------------------------------------------
     1   5 B    3.381 --    13 F    0.848    14 F    0.848     9 N    0.816
                             2 N    0.816
     2   7 N    3.618 --     3 C    1.404     6 C    1.145     1 B    0.816
     3   6 C    3.930 --     2 N    1.404     4 C    1.338    15 H    0.967
     4   6 C    3.962 --     5 C    1.528     3 C    1.338    16 H    0.972
     5   6 C    3.952 --     4 C    1.528     6 C    1.252    17 H    0.971
     6   6 C    3.962 --     7 C    1.372     5 C    1.252     2 N    1.145
     7   6 C    3.983 --     6 C    1.372     8 C    1.372    18 H    0.960
     8   6 C    3.962 --     7 C    1.372    12 C    1.252     9 N    1.145
     9   7 N    3.618 --    10 C    1.404     8 C    1.145     1 B    0.816
    10   6 C    3.930 --     9 N    1.404    11 C    1.338    19 H    0.967
    11   6 C    3.962 --    12 C    1.528    10 C    1.338    20 H    0.972
    12   6 C    3.952 --    11 C    1.528     8 C    1.252    21 H    0.971
    13   9 F    0.942 --     1 B    0.848
    14   9 F    0.942 --     1 B    0.848
    15   1 H    0.995 --     3 C    0.967
    16   1 H    0.996 --     4 C    0.972
    17   1 H    0.996 --     5 C    0.971
    18   1 H    0.991 --     7 C    0.960
    19   1 H    0.995 --    10 C    0.967
    20   1 H    0.996 --    11 C    0.972
    21   1 H    0.996 --    12 C    0.971
 ---------------------------------------------------------------------------

Topologies differ in total number of bonds
Writing topology from bond orders to xtbtopo.mol

molecular dipole:
                 x           y           z       tot (Debye)
 q only:        0.000       2.387       0.002
   full:        0.000       2.335       0.002       5.936
molecular quadrupole (traceless):
                xx          xy          yy          xz          yz          zz
 q only:       13.586      -0.000      -5.240       0.000      -0.012      -8.346
  q+dip:       16.026      -0.000      -2.823       0.000      -0.019     -13.203
   full:       14.016      -0.000      -4.768       0.000      -0.013      -9.249

           -------------------------------------------------
          |                Geometry Summary                 |
           -------------------------------------------------

      molecular mass/u    :      191.9734491
   center of mass at/Å    :       -0.0000016      -0.0000934       0.0005412
  moments of inertia/u·Å² :        0.3878571E+03   0.7764075E+03   0.1067506E+04
rotational constants/cm⁻¹ :        0.4346352E-01   0.2171235E-01   0.1579161E-01

 * 23 selected distances

     #   Z          #   Z                                           value/Å
     1   5 B        2   7 N                                       1.5425187
     2   7 N        3   6 C                                       1.3290939
     3   6 C        4   6 C                                       1.4013474
     4   6 C        5   6 C                                       1.3767418
     2   7 N        6   6 C                                       1.3817953
     5   6 C        6   6 C                                       1.4159906
     6   6 C        7   6 C                                       1.3857078
     7   6 C        8   6 C                                       1.3857098
     1   5 B        9   7 N                                       1.5425194 (max)
     8   6 C        9   7 N                                       1.3817945
     9   7 N       10   6 C                                       1.3290952
    10   6 C       11   6 C                                       1.4013467
     8   6 C       12   6 C                                       1.4159896
    11   6 C       12   6 C                                       1.3767425
     1   5 B       13   9 F                                       1.3884177
     1   5 B       14   9 F                                       1.3884963
     3   6 C       15   1 H                                       1.0737655
     4   6 C       16   1 H                                       1.0720358
     5   6 C       17   1 H                                       1.0723456
     7   6 C       18   1 H                                       1.0798446
    10   6 C       19   1 H                                       1.0737651
    11   6 C       20   1 H                                       1.0720356 (min)
    12   6 C       21   1 H                                       1.0723456

 * 5 distinct bonds (by element types)

   Z      Z             #   av. dist./Å        max./Å        min./Å
   1 H    6 C           7     1.0737340     1.0798446     1.0720356
   6 C    6 C           8     1.3949470     1.4159906     1.3767418
   5 B    7 N           2     1.5425190     1.5425194     1.5425187
   6 C    7 N           4     1.3554447     1.3817953     1.3290939
   5 B    9 F           2     1.3884570     1.3884963     1.3884177


optimized geometry written to: xtbopt.xyz


           -------------------------------------------------
          | TOTAL ENERGY              -39.549150648837 Eh   |
          | GRADIENT NORM               0.000049713542 Eh/α |
          | HOMO-LUMO GAP               1.791472301644 eV   |
           -------------------------------------------------

------------------------------------------------------------------------
 * finished run on 2024/08/18 at 15:26:03.924     
------------------------------------------------------------------------
 total:
 * wall-time:     0 d,  0 h,  0 min,  0.095 sec
 *  cpu-time:     0 d,  0 h,  0 min,  0.654 sec
 * ratio c/w:     6.865 speedup
 SCF:
 * wall-time:     0 d,  0 h,  0 min,  0.017 sec
 *  cpu-time:     0 d,  0 h,  0 min,  0.119 sec
 * ratio c/w:     6.906 speedup
 ANC optimizer:
 * wall-time:     0 d,  0 h,  0 min,  0.067 sec
 *  cpu-time:     0 d,  0 h,  0 min,  0.468 sec
 * ratio c/w:     6.991 speedup

