[Molden Format]
made by pyscf v[2.5.0]
[Atoms] (AU)
O   1   8     0.00000000000000     0.00000000000000     0.22166487441148
H   2   1     0.00000000000000     1.43090062152066    -0.88665949764593
H   3   1     0.00000000000000    -1.43090062152066    -0.88665949764593
[GTO]
1 0
 s    6 1.00
          27032.382631  0.00057227335211155
          4052.3871392  0.0044353233492995
           922.3272271   0.023020107706038
          261.24070989   0.092822490667928
          85.354641351    0.29378500009671
          31.035035245    0.67401604501641
 s    2 1.00
          12.260860728    0.63839937025506
          4.9987076005    0.39534587125718
 s    1 1.00
          1.1703108158                   1
 s    1 1.00
         0.46474740994                   1
 s    1 1.00
         0.18504536357                   1
 p    4 1.00
          63.274954801   0.012018332222616
          14.627049379   0.083005421790056
          4.4501223456    0.31991743925964
          1.5275799647    0.70715542916104
 p    1 1.00
         0.52935117943                   1
 p    1 1.00
          0.1747842127                   1
 d    1 1.00
                 2.314                   1
 d    1 1.00
                 0.645                   1
 f    1 1.00
                 1.428                   1

2 0
 s    3 1.00
             34.061341   0.025439307208879
             5.1235746    0.19008594890375
             1.1646626    0.85244113011042
 s    1 1.00
            0.32723041                   1
 s    1 1.00
            0.10307241                   1
 p    1 1.00
                 1.407                   1
 p    1 1.00
                 0.388                   1
 d    1 1.00
                 1.057                   1

3 0
 s    3 1.00
             34.061341   0.025439307208879
             5.1235746    0.19008594890375
             1.1646626    0.85244113011042
 s    1 1.00
            0.32723041                   1
 s    1 1.00
            0.10307241                   1
 p    1 1.00
                 1.407                   1
 p    1 1.00
                 0.388                   1
 d    1 1.00
                 1.057                   1

[5d]
[7f]
[9g]

[MO]
 Sym= A1
 Ene=               0
 Spin= Alpha
 Occup=    1.00000
   1      0.43506864970365
   2       0.6396333876862
   3     0.034076623504648
   4    -0.019254110627133
   5    0.0064048893353279
   6                     0
   7                     0
   8    -0.0021033897617353
   9                     0
  10                     0
  11    0.0019709721044018
  12                     0
  13                     0
  14    -0.00042026788043073
  15    7.0641977776433e-05
  16                     0
  17                     0
  18    -0.00044980177939817
  19                     0
  20    -0.00023973475933476
  21                     0
  22                     0
  23    0.00048496982560454
  24                     0
  25    8.8451083472626e-05
  26                     0
  27                     0
  28    6.2161808838768e-05
  29                     0
  30                     0
  31                     0
  32    0.00048509499352922
  33     0.001078901792639
  34    -0.0010435310787778
  35                     0
  36    0.00020576314671496
  37    -0.00027396305146444
  38                     0
  39    -0.00059047918110376
  40    0.00041079148676603
  41    -0.00011874050441671
  42                     0
  43    0.00076456536266289
  44    0.00038551712768838
  45                     0
  46    0.00048509499352922
  47     0.001078901792639
  48    -0.0010435310787778
  49                     0
  50    -0.00020576314671496
  51    -0.00027396305146444
  52                     0
  53    0.00059047918110376
  54    0.00041079148676603
  55    -0.00011874050441671
  56                     0
  57    -0.00076456536266289
  58    0.00038551712768838
  59                     0
 Sym= A1
 Ene=               1
 Spin= Alpha
 Occup=    1.00000
   1    -0.097679576090058
   2      -0.2295969034283
   3      0.34218446255105
   4      0.40631785895919
   5      0.14553421753222
   6                     0
   7                     0
   8    -0.087177324345575
   9                     0
  10                     0
  11    -0.059007399681121
  12                     0
  13                     0
  14    -0.0071991465938266
  15    0.0013770982690647
  16                     0
  17                     0
  18    -0.0038903811487686
  19                     0
  20    0.0032555193798565
  21                     0
  22                     0
  23    -0.0054160748938791
  24                     0
  25    -0.00016118653792685
  26                     0
  27                     0
  28    0.00069807948415396
  29                     0
  30                     0
  31                     0
  32     0.096544145321523
  33     0.086383667901029
  34    0.0075083691734597
  35                     0
  36    -0.013252267094676
  37    0.0090548769302484
  38                     0
  39    -0.013133292624973
  40    0.0069240451630433
  41    -3.6748961558167e-05
  42                     0
  43    -0.0041263642512506
  44    -0.0032280395819545
  45                     0
  46     0.096544145321523
  47     0.086383667901029
  48    0.0075083691734597
  49                     0
  50     0.013252267094676
  51    0.0090548769302484
  52                     0
  53     0.013133292624973
  54    0.0069240451630433
  55    -3.6748961558167e-05
  56                     0
  57    0.0041263642512506
  58    -0.0032280395819545
  59                     0
 Sym= B2
 Ene=               2
 Spin= Alpha
 Occup=    1.00000
   1                     0
   2                     0
   3                     0
   4                     0
   5                     0
   6                     0
   7      0.38775096993277
   8                     0
   9                     0
  10      0.26667488572168
  11                     0
  12                     0
  13      0.10908379485193
  14                     0
  15                     0
  16                     0
  17    -0.011757197549125
  18                     0
  19                     0
  20                     0
  21                     0
  22    -0.011430143739116
  23                     0
  24                     0
  25                     0
  26                     0
  27    -0.00086015931308375
  28                     0
  29                     0
  30                     0
  31    -0.0018629257366876
  32      0.15101225798558
  33      0.21573206476672
  34     0.069900805573631
  35                     0
  36    -0.011341418632615
  37     0.014494667169722
  38                     0
  39    -0.013342382159697
  40     0.020645299539434
  41    0.0023436538829754
  42                     0
  43    -0.0061860872400845
  44    -0.0027661622420999
  45                     0
  46     -0.15101225798558
  47     -0.21573206476672
  48    -0.069900805573631
  49                     0
  50    -0.011341418632615
  51    -0.014494667169722
  52                     0
  53    -0.013342382159697
  54    -0.020645299539434
  55    -0.0023436538829754
  56                     0
  57    -0.0061860872400845
  58    0.0027661622420999
  59                     0
 Sym= A1
 Ene=               3
 Spin= Alpha
 Occup=    1.00000
   1    -0.036917783753032
   2    -0.088230060757541
   3        0.134889779639
   4      0.20528429476726
   5      0.25485178185467
   6                     0
   7                     0
   8      0.41762622480221
   9                     0
  10                     0
  11      0.30712632966169
  12                     0
  13                     0
  14      0.21344566039005
  15    -0.0059367656910226
  16                     0
  17                     0
  18    0.0020610123338603
  19                     0
  20      -0.0149671659744
  21                     0
  22                     0
  23    0.00013848110167117
  24                     0
  25    0.00073271530011372
  26                     0
  27                     0
  28    -0.0016869227507985
  29                     0
  30                     0
  31                     0
  32    -0.087247161298383
  33     -0.14139412288622
  34    -0.046128840788648
  35                     0
  36     0.010444205359027
  37     0.001144041957982
  38                     0
  39     0.021882486051737
  40     0.017608395886934
  41    0.0033725077251437
  42                     0
  43    0.00043242956394946
  44    0.0040900289240804
  45                     0
  46    -0.087247161298383
  47     -0.14139412288622
  48    -0.046128840788648
  49                     0
  50    -0.010444205359027
  51     0.001144041957982
  52                     0
  53    -0.021882486051737
  54     0.017608395886934
  55    0.0033725077251437
  56                     0
  57    -0.00043242956394946
  58    0.0040900289240804
  59                     0
 Sym= B1
 Ene=               4
 Spin= Alpha
 Occup=    1.00000
   1                     0
   2                     0
   3                     0
   4                     0
   5                     0
   6      0.47716624466944
   7                     0
   8                     0
   9      0.37349142448789
  10                     0
  11                     0
  12      0.31754049935454
  13                     0
  14                     0
  15                     0
  16    -0.0054752980166391
  17                     0
  18                     0
  19                     0
  20                     0
  21    -0.017128208173631
  22                     0
  23                     0
  24                     0
  25                     0
  26    0.0012364472531229
  27                     0
  28                     0
  29                     0
  30    -0.0030546702824566
  31                     0
  32                     0
  33                     0
  34                     0
  35     0.011137784302073
  36                     0
  37                     0
  38     0.034388176469266
  39                     0
  40                     0
  41                     0
  42    0.0034576076713786
  43                     0
  44                     0
  45    -0.0052701600915634
  46                     0
  47                     0
  48                     0
  49     0.011137784302073
  50                     0
  51                     0
  52     0.034388176469266
  53                     0
  54                     0
  55                     0
  56    0.0034576076713786
  57                     0
  58                     0
  59    0.0052701600915634
 Sym= A1
 Ene=               5
 Spin= Alpha
 Occup=    0.00000
   1    -0.033133310047927
   2    -0.082545847549054
   3      0.16571928545044
   4     0.084294064521604
   5       1.4261025331379
   6                     0
   7                     0
   8     -0.15261417731824
   9                     0
  10                     0
  11     -0.18764851337743
  12                     0
  13                     0
  14     -0.43046475274227
  15    0.00046901489666235
  16                     0
  17                     0
  18    0.0035509177182216
  19                     0
  20     0.016241361566575
  21                     0
  22                     0
  23    -0.018942594053476
  24                     0
  25    -0.00037843911616394
  26                     0
  27                     0
  28    0.0012078360487152
  29                     0
  30                     0
  31                     0
  32    -0.032610516831465
  33     -0.24885148987389
  34     -0.98280562647065
  35                     0
  36     -0.01587491206809
  37    0.0086521917403144
  38                     0
  39     0.065431061719054
  40    -0.035276741335966
  41    -0.0003917659857374
  42                     0
  43    0.0021400811092552
  44     0.001385809997176
  45                     0
  46    -0.032610516831465
  47     -0.24885148987389
  48     -0.98280562647065
  49                     0
  50      0.01587491206809
  51    0.0086521917403144
  52                     0
  53    -0.065431061719054
  54    -0.035276741335966
  55    -0.0003917659857374
  56                     0
  57    -0.0021400811092552
  58     0.001385809997176
  59                     0
 Sym= B2
 Ene=               6
 Spin= Alpha
 Occup=    0.00000
   1                     0
   2                     0
   3                     0
   4                     0
   5                     0
   6                     0
   7     -0.24750120848658
   8                     0
   9                     0
  10     -0.19921560865951
  11                     0
  12                     0
  13     -0.75049213853296
  14                     0
  15                     0
  16                     0
  17    -0.0030365338471996
  18                     0
  19                     0
  20                     0
  21                     0
  22     0.014180625271787
  23                     0
  24                     0
  25                     0
  26                     0
  27    0.0014320730047032
  28                     0
  29                     0
  30                     0
  31    0.00066985557429585
  32     0.032424301278522
  33      0.12496798858348
  34       1.6832532248438
  35                     0
  36     0.014550635222549
  37    -0.015643773386235
  38                     0
  39    -0.034431380279069
  40     0.030112753791493
  41    -0.0021980628340836
  42                     0
  43    -0.0011985001211116
  44    -0.002756179851942
  45                     0
  46    -0.032424301278522
  47     -0.12496798858348
  48      -1.6832532248438
  49                     0
  50     0.014550635222549
  51     0.015643773386235
  52                     0
  53    -0.034431380279069
  54    -0.030112753791493
  55    0.0021980628340836
  56                     0
  57    -0.0011985001211116
  58     0.002756179851942
  59                     0
 Sym= B2
 Ene=               7
 Spin= Alpha
 Occup=    0.00000
   1                     0
   2                     0
   3                     0
   4                     0
   5                     0
   6                     0
   7     -0.12537327613778
   8                     0
   9                     0
  10     -0.30876368969508
  11                     0
  12                     0
  13      -1.1175292720009
  14                     0
  15                     0
  16                     0
  17    -0.025896687739027
  18                     0
  19                     0
  20                     0
  21                     0
  22     0.099619506588138
  23                     0
  24                     0
  25                     0
  26                     0
  27    -0.011249260086954
  28                     0
  29                     0
  30                     0
  31     0.012092900485942
  32      0.12354060945904
  33       1.3945543722124
  34     -0.55991571707414
  35                     0
  36    -0.041123020668834
  37      0.02212343070267
  38                     0
  39    -0.040924830733296
  40    -0.023686645870086
  41    -0.0042215920008504
  42                     0
  43    -0.023791013719162
  44    -0.011250490845647
  45                     0
  46     -0.12354060945904
  47      -1.3945543722124
  48      0.55991571707414
  49                     0
  50    -0.041123020668834
  51     -0.02212343070267
  52                     0
  53    -0.040924830733296
  54     0.023686645870086
  55    0.0042215920008504
  56                     0
  57    -0.023791013719162
  58     0.011250490845647
  59                     0
 Sym= A1
 Ene=               8
 Spin= Alpha
 Occup=    0.00000
   1     0.016583424927549
   2     0.032246830291625
   3       0.1441107272494
   4      -1.0922706976827
   5      -2.0458090695348
   6                     0
   7                     0
   8     -0.28488912802532
   9                     0
  10                     0
  11    -0.076329624421158
  12                     0
  13                     0
  14       2.0238664715582
  15     0.010656342313691
  16                     0
  17                     0
  18    -0.013572463904176
  19                     0
  20    -0.050008169066092
  21                     0
  22                     0
  23      0.16751031308384
  24                     0
  25    -0.010788931784439
  26                     0
  27                     0
  28    -0.024875901895081
  29                     0
  30                     0
  31                     0
  32    -0.0083459205556558
  33        1.464399366287
  34      0.39874736835441
  35                     0
  36    -0.028710351261892
  37     0.024799118736045
  38                     0
  39     -0.47609051421972
  40      0.32292814562142
  41    0.0012387435328544
  42                     0
  43    -0.045080942623961
  44     -0.03439008484308
  45                     0
  46    -0.0083459205556558
  47        1.464399366287
  48      0.39874736835441
  49                     0
  50     0.028710351261892
  51     0.024799118736045
  52                     0
  53      0.47609051421972
  54      0.32292814562142
  55    0.0012387435328544
  56                     0
  57     0.045080942623961
  58     -0.03439008484308
  59                     0
 Sym= A1
 Ene=               9
 Spin= Alpha
 Occup=    0.00000
   1     0.032323249947093
   2     0.075704031334266
   3     -0.06777164296604
   4     -0.45513464643427
   5      0.72216779433577
   6                     0
   7                     0
   8      0.19502155076133
   9                     0
  10                     0
  11      0.17367043831802
  12                     0
  13                     0
  14    -0.012221912099284
  15     -0.00941607999822
  16                     0
  17                     0
  18    -0.012885048628819
  19                     0
  20     0.027071327824667
  21                     0
  22                     0
  23    -0.027501844781789
  24                     0
  25    -0.0067163225836238
  26                     0
  27                     0
  28    -0.0091087134402996
  29                     0
  30                     0
  31                     0
  32      0.12732801310142
  33      0.89106539182709
  34      -0.8356211158697
  35                     0
  36    -0.020481783844034
  37     0.013598162535165
  38                     0
  39      0.32818611084664
  40    -0.022916142734958
  41     0.013063998043068
  42                     0
  43    -0.0026012069599698
  44    -0.00033665951629603
  45                     0
  46      0.12732801310142
  47      0.89106539182709
  48      -0.8356211158697
  49                     0
  50     0.020481783844034
  51     0.013598162535165
  52                     0
  53     -0.32818611084664
  54    -0.022916142734958
  55     0.013063998043068
  56                     0
  57    0.0026012069599698
  58    -0.00033665951629603
  59                     0
 Sym= B1
 Ene=              10
 Spin= Alpha
 Occup=    0.00000
   1                     0
   2                     0
   3                     0
   4                     0
   5                     0
   6     -0.31634310453704
   7                     0
   8                     0
   9     -0.69153837868614
  10                     0
  11                     0
  12         1.26758163131
  13                     0
  14                     0
  15                     0
  16    0.0075860314719718
  17                     0
  18                     0
  19                     0
  20                     0
  21    -0.012252157727406
  22                     0
  23                     0
  24                     0
  25                     0
  26    -0.00045807466673799
  27                     0
  28                     0
  29                     0
  30    0.0015440943465478
  31                     0
  32                     0
  33                     0
  34                     0
  35    0.0062195621546733
  36                     0
  37                     0
  38    -0.040346209139946
  39                     0
  40                     0
  41                     0
  42    -0.00032131360148578
  43                     0
  44                     0
  45    0.0014500139959565
  46                     0
  47                     0
  48                     0
  49    0.0062195621546733
  50                     0
  51                     0
  52    -0.040346209139946
  53                     0
  54                     0
  55                     0
  56    -0.00032131360148578
  57                     0
  58                     0
  59    -0.0014500139959565
 Sym= B2
 Ene=              11
 Spin= Alpha
 Occup=    0.00000
   1                     0
   2                     0
   3                     0
   4                     0
   5                     0
   6                     0
   7      0.35308589334993
   8                     0
   9                     0
  10     0.038767961344351
  11                     0
  12                     0
  13      -2.5386301222146
  14                     0
  15                     0
  16                     0
  17    -0.018316936034314
  18                     0
  19                     0
  20                     0
  21                     0
  22      0.28341202144708
  23                     0
  24                     0
  25                     0
  26                     0
  27    -0.015437137707452
  28                     0
  29                     0
  30                     0
  31     0.011330365500028
  32    -0.060009493774374
  33      0.82153687818138
  34       1.9076526088033
  35                     0
  36    -0.030426889558489
  37     0.016919805004696
  38                     0
  39     -0.52773959319129
  40       0.4723361355186
  41    0.00012407938671078
  42                     0
  43    -0.048293982837867
  44    -0.031631460783563
  45                     0
  46     0.060009493774374
  47     -0.82153687818138
  48      -1.9076526088033
  49                     0
  50    -0.030426889558489
  51    -0.016919805004696
  52                     0
  53     -0.52773959319129
  54      -0.4723361355186
  55    -0.00012407938671078
  56                     0
  57    -0.048293982837867
  58     0.031631460783563
  59                     0
 Sym= A1
 Ene=              12
 Spin= Alpha
 Occup=    0.00000
   1     0.046613256840952
   2     0.099830350796867
   3     -0.02000952111612
   4      -1.2836476943379
   5       4.9703939284004
   6                     0
   7                     0
   8     0.041988448873869
   9                     0
  10                     0
  11     -0.35483606273128
  12                     0
  13                     0
  14     -0.84438211007204
  15     0.010134364434951
  16                     0
  17                     0
  18     0.023706186521532
  19                     0
  20    -0.018681128713504
  21                     0
  22                     0
  23     -0.15769939727244
  24                     0
  25     0.013278322135806
  26                     0
  27                     0
  28     0.018021866868069
  29                     0
  30                     0
  31                     0
  32     0.021125148707817
  33      -1.2548453250754
  34     -0.99545414152703
  35                     0
  36     0.023886932334156
  37    -0.0025467864324888
  38                     0
  39       0.2192334526635
  40     -0.56797542737382
  41    -0.019888364160386
  42                     0
  43     0.039079209467855
  44     0.015329550951065
  45                     0
  46     0.021125148707817
  47      -1.2548453250754
  48     -0.99545414152703
  49                     0
  50    -0.023886932334156
  51    -0.0025467864324888
  52                     0
  53      -0.2192334526635
  54     -0.56797542737382
  55    -0.019888364160386
  56                     0
  57    -0.039079209467855
  58     0.015329550951065
  59                     0
 Sym= A1
 Ene=              13
 Spin= Alpha
 Occup=    0.00000
   1     0.014068101262575
   2      0.02939110507808
   3    -0.040010350919867
   4     -0.34578538541425
   5       3.7671397276713
   6                     0
   7                     0
   8    -0.085490242153089
   9                     0
  10                     0
  11     -0.69604914452216
  12                     0
  13                     0
  14          -1.761223669
  15    -0.032598129979603
  16                     0
  17                     0
  18    0.00068841448189708
  19                     0
  20      0.10735049821936
  21                     0
  22                     0
  23    -0.037783083287554
  24                     0
  25    -0.0040874071419491
  26                     0
  27                     0
  28     0.022069639518455
  29                     0
  30                     0
  31                     0
  32    0.0061908395846416
  33        -1.83412971259
  34     -0.41989379647552
  35                     0
  36    0.0097158256751723
  37    -0.046808324200712
  38                     0
  39      0.79443696545244
  40      0.39092484393981
  41     0.032926303762737
  42                     0
  43     0.011830458413818
  44      0.05709823550612
  45                     0
  46    0.0061908395846416
  47        -1.83412971259
  48     -0.41989379647552
  49                     0
  50    -0.0097158256751723
  51    -0.046808324200712
  52                     0
  53     -0.79443696545244
  54      0.39092484393981
  55     0.032926303762737
  56                     0
  57    -0.011830458413818
  58      0.05709823550612
  59                     0
 Sym= A2
 Ene=              14
 Spin= Alpha
 Occup=    0.00000
   1                     0
   2                     0
   3                     0
   4                     0
   5                     0
   6                     0
   7                     0
   8                     0
   9                     0
  10                     0
  11                     0
  12                     0
  13                     0
  14                     0
  15                     0
  16                     0
  17                     0
  18                     0
  19     0.026382486318903
  20                     0
  21                     0
  22                     0
  23                     0
  24    -0.0062882841122931
  25                     0
  26                     0
  27                     0
  28                     0
  29     0.014008562059546
  30                     0
  31                     0
  32                     0
  33                     0
  34                     0
  35    -0.047745057020887
  36                     0
  37                     0
  38      0.82779678950274
  39                     0
  40                     0
  41                     0
  42       0.0244281872503
  43                     0
  44                     0
  45    -0.012501610220695
  46                     0
  47                     0
  48                     0
  49     0.047745057020887
  50                     0
  51                     0
  52     -0.82779678950274
  53                     0
  54                     0
  55                     0
  56      -0.0244281872503
  57                     0
  58                     0
  59    -0.012501610220695
 Sym= B1
 Ene=              15
 Spin= Alpha
 Occup=    0.00000
   1                     0
   2                     0
   3                     0
   4                     0
   5                     0
   6    -0.076783573981982
   7                     0
   8                     0
   9     -0.26203971831436
  10                     0
  11                     0
  12     -0.86847856653227
  13                     0
  14                     0
  15                     0
  16    -0.021765578561043
  17                     0
  18                     0
  19                     0
  20                     0
  21    -0.027921117362513
  22                     0
  23                     0
  24                     0
  25                     0
  26    -0.0044029491237361
  27                     0
  28                     0
  29                     0
  30     0.015700846305929
  31                     0
  32                     0
  33                     0
  34                     0
  35    -0.059441168980849
  36                     0
  37                     0
  38      0.96869085235607
  39                     0
  40                     0
  41                     0
  42    0.0022035048951044
  43                     0
  44                     0
  45     -0.03912413146762
  46                     0
  47                     0
  48                     0
  49    -0.059441168980849
  50                     0
  51                     0
  52      0.96869085235607
  53                     0
  54                     0
  55                     0
  56    0.0022035048951044
  57                     0
  58                     0
  59      0.03912413146762
 Sym= B2
 Ene=              16
 Spin= Alpha
 Occup=    0.00000
   1                     0
   2                     0
   3                     0
   4                     0
   5                     0
   6                     0
   7    -0.059164468708404
   8                     0
   9                     0
  10      -0.4441378693743
  11                     0
  12                     0
  13      -1.4836595062076
  14                     0
  15                     0
  16                     0
  17    -3.9255504755135e-05
  18                     0
  19                     0
  20                     0
  21                     0
  22     0.091562545205308
  23                     0
  24                     0
  25                     0
  26                     0
  27    -0.00080936590474994
  28                     0
  29                     0
  30                     0
  31     0.012652851944617
  32    -0.0034661442881205
  33       0.8868810659997
  34      0.27768305852574
  35                     0
  36    -0.063091980286056
  37    -0.038778627499643
  38                     0
  39       0.5622684248276
  40       1.0571050089279
  41     0.015308062000057
  42                     0
  43    -0.020526203534352