      -----------------------------------------------------------      
     |                   =====================                   |     
     |                           x T B                           |     
     |                   =====================                   |     
     |                         S. Grimme                         |     
     |          Mulliken Center for Theoretical Chemistry        |     
     |                    University of Bonn                     |     
      -----------------------------------------------------------      

   * xtb version 6.6.1 (8d0f1dd) compiled by 'conda@1efc2f54142f' on 2023-08-01

   xtb is free software: you can redistribute it and/or modify it under
   the terms of the GNU Lesser General Public License as published by
   the Free Software Foundation, either version 3 of the License, or
   (at your option) any later version.
   
   xtb is distributed in the hope that it will be useful,
   but WITHOUT ANY WARRANTY; without even the implied warranty of
   MERCHANTABILITY or FITNESS FOR A PARTICULAR PURPOSE.  See the
   GNU Lesser General Public License for more details.
   
   Cite this work as:
   * C. Bannwarth, E. Caldeweyher, S. Ehlert, A. Hansen, P. Pracht,
     J. Seibert, S. Spicher, S. Grimme, WIREs Comput. Mol. Sci., 2020, 11,
     e01493. DOI: 10.1002/wcms.1493
   
   for GFN2-xTB:
   * C. Bannwarth, S. Ehlert and S. Grimme., J. Chem. Theory Comput., 2019,
     15, 1652-1671. DOI: 10.1021/acs.jctc.8b01176
   for GFN1-xTB:
   * S. Grimme, C. Bannwarth, P. Shushkov, J. Chem. Theory Comput., 2017,
     13, 1989-2009. DOI: 10.1021/acs.jctc.7b00118
   for GFN0-xTB:
   * P. Pracht, E. Caldeweyher, S. Ehlert, S. Grimme, ChemRxiv, 2019, preprint.
     DOI: 10.26434/chemrxiv.8326202.v1
   for GFN-FF:
   * S. Spicher and S. Grimme, Angew. Chem. Int. Ed., 2020, 59, 15665-15673.
     DOI: 10.1002/anie.202004239
   
   for ALPB and GBSA implicit solvation:
   * S. Ehlert, M. Stahn, S. Spicher, S. Grimme, J. Chem. Theory Comput.,
     2021, 17, 4250-4261. DOI: 10.1021/acs.jctc.1c00471
   
   for DFT-D4:
   * E. Caldeweyher, C. Bannwarth and S. Grimme, J. Chem. Phys., 2017,
     147, 034112. DOI: 10.1063/1.4993215
   * E. Caldeweyher, S. Ehlert, A. Hansen, H. Neugebauer, S. Spicher,
     C. Bannwarth and S. Grimme, J. Chem. Phys., 2019, 150, 154122.
     DOI: 10.1063/1.5090222
   * E. Caldeweyher, J.-M. Mewes, S. Ehlert and S. Grimme, Phys. Chem. Chem. Phys.
     2020, 22, 8499-8512. DOI: 10.1039/D0CP00502A
   
   for sTDA-xTB:
   * S. Grimme and C. Bannwarth, J. Chem. Phys., 2016, 145, 054103.
     DOI: 10.1063/1.4959605
   
   in the mass-spec context:
   * V. Asgeirsson, C. Bauer and S. Grimme, Chem. Sci., 2017, 8, 4879.
     DOI: 10.1039/c7sc00601b
   * J. Koopman and S. Grimme, ACS Omega 2019, 4, 12, 15120-15133.
     DOI: 10.1021/acsomega.9b02011
   
   for metadynamics refer to:
   * S. Grimme, J. Chem. Theory Comput., 2019, 155, 2847-2862
     DOI: 10.1021/acs.jctc.9b00143
   
   for SPH calculations refer to:
   * S. Spicher and S. Grimme, J. Chem. Theory Comput., 2021, 17, 1701-1714
     DOI: 10.1021/acs.jctc.0c01306
   
   with help from (in alphabetical order)
   P. Atkinson, C. Bannwarth, F. Bohle, G. Brandenburg, E. Caldeweyher
   M. Checinski, S. Dohm, S. Ehlert, S. Ehrlich, I. Gerasimov, C. Hölzer
   A. Katbashev, J. Koopman, C. Lavigne, S. Lehtola, F. März, M. Müller,
   F. Musil, H. Neugebauer, J. Pisarek, C. Plett, P. Pracht, F. Pultar,
   J. Seibert, P. Shushkov, S. Spicher, M. Stahn, M. Steiner, T. Strunk,
   J. Stückrath, T. Rose, and J. Unsleber
   
 * started run on 2024/04/08 at 19:30:08.336     

           -------------------------------------------------
          |                Calculation Setup                |
           -------------------------------------------------

          program call               : xtb water/water.xyz --opt vtight
          coordinate file            : water/water.xyz
          omp threads                :                     4

   ID    Z sym.   atoms
    1    8 O      1
    2    1 H      2, 3

           -------------------------------------------------
          |                 G F N 2 - x T B                 |
           -------------------------------------------------

        Reference                      10.1021/acs.jctc.8b01176
      * Hamiltonian:
        H0-scaling (s, p, d)           1.850000    2.230000    2.230000
        zeta-weighting                 0.500000
      * Dispersion:
        s8                             2.700000
        a1                             0.520000
        a2                             5.000000
        s9                             5.000000
      * Repulsion:
        kExp                           1.500000    1.000000
        rExp                           1.000000
      * Coulomb:
        alpha                          2.000000
        third order                    shell-resolved
        anisotropic                    true
        a3                             3.000000
        a5                             4.000000
        cn-shift                       1.200000
        cn-exp                         4.000000
        max-rad                        5.000000


          ...................................................
          :                      SETUP                      :
          :.................................................:
          :  # basis functions                   6          :
          :  # atomic orbitals                   6          :
          :  # shells                            4          :
          :  # electrons                         8          :
          :  max. iterations                   250          :
          :  Hamiltonian                  GFN2-xTB          :
          :  restarted?                      false          :
          :  GBSA solvation                  false          :
          :  PC potential                    false          :
          :  electronic temp.          300.0000000     K    :
          :  accuracy                    1.0000000          :
          :  -> integral cutoff          0.2500000E+02      :
          :  -> integral neglect         0.1000000E-07      :
          :  -> SCF convergence          0.1000000E-05 Eh   :
          :  -> wf. convergence          0.1000000E-03 e    :
          :  Broyden damping             0.4000000          :
          ...................................................

 iter      E             dE          RMSdq      gap      omega  full diag
   1     -5.1037647 -0.510376E+01  0.422E+00   15.00       0.0  T
   2     -5.1050042 -0.123947E-02  0.243E+00   14.73       1.0  T
   3     -5.1052355 -0.231294E-03  0.377E-01   14.51       1.0  T
   4     -5.1052949 -0.593935E-04  0.884E-02   14.66       1.0  T
   5     -5.1052977 -0.282106E-05  0.562E-02   14.61       1.0  T
   6     -5.1052995 -0.182531E-05  0.137E-03   14.63      42.2  T
   7     -5.1052995 -0.542713E-09  0.993E-04   14.63      58.1  T
   8     -5.1052995 -0.582371E-09  0.185E-05   14.63    3122.9  T

   *** convergence criteria satisfied after 8 iterations ***

         #    Occupation            Energy/Eh            Energy/eV
      -------------------------------------------------------------
         1        2.0000           -0.6816642             -18.5490
         2        2.0000           -0.5664674             -15.4144
         3        2.0000           -0.5147063             -14.0059
         4        2.0000           -0.4474927             -12.1769 (HOMO)
         5                          0.0901379               2.4528 (LUMO)
         6                          0.2456096               6.6834
      -------------------------------------------------------------
                  HL-Gap            0.5376306 Eh           14.6297 eV
             Fermi-level           -0.1786774 Eh           -4.8621 eV

 SCC (total)                   0 d,  0 h,  0 min,  0.006 sec
 SCC setup                      ...        0 min,  0.001 sec ( 10.601%)
 Dispersion                     ...        0 min,  0.000 sec (  0.713%)
 classical contributions        ...        0 min,  0.000 sec (  7.341%)
 integral evaluation            ...        0 min,  0.001 sec ( 18.030%)
 iterations                     ...        0 min,  0.003 sec ( 59.651%)
 molecular gradient             ...        0 min,  0.000 sec (  2.034%)
 printout                       ...        0 min,  0.000 sec (  1.148%)

         :::::::::::::::::::::::::::::::::::::::::::::::::::::
         ::                     SUMMARY                     ::
         :::::::::::::::::::::::::::::::::::::::::::::::::::::
         :: total energy              -5.070370761845 Eh    ::
         :: gradient norm              0.007221585093 Eh/a0 ::
         :: HOMO-LUMO gap             14.629673576893 eV    ::
         ::.................................................::
         :: SCC energy                -5.105299543132 Eh    ::
         :: -> isotropic ES            0.031401322598 Eh    ::
         :: -> anisotropic ES          0.000597418704 Eh    ::
         :: -> anisotropic XC         -0.000834519740 Eh    ::
         :: -> dispersion             -0.000141213172 Eh    ::
         :: repulsion energy           0.034928781256 Eh    ::
         :: add. restraining           0.000000000000 Eh    ::
         :: total charge              -0.000000000000 e     ::
         :::::::::::::::::::::::::::::::::::::::::::::::::::::

           -------------------------------------------------
          |                Property Printout                |
           -------------------------------------------------

    * Orbital Energies and Occupations

         #    Occupation            Energy/Eh            Energy/eV
      -------------------------------------------------------------
         1        2.0000           -0.6816642             -18.5490
         2        2.0000           -0.5664674             -15.4144
         3        2.0000           -0.5147063             -14.0059
         4        2.0000           -0.4474927             -12.1769 (HOMO)
         5                          0.0901379               2.4528 (LUMO)
         6                          0.2456096               6.6834
      -------------------------------------------------------------
                  HL-Gap            0.5376306 Eh           14.6297 eV
             Fermi-level           -0.1786774 Eh           -4.8621 eV

     #   Z          covCN         q      C6AA      α(0)
     1   8 O        1.611    -0.564    24.329     6.657
     2   1 H        0.806     0.282     0.778     1.386
     3   1 H        0.806     0.282     0.778     1.386

 Mol. C6AA /au·bohr⁶  :         44.526912
 Mol. C8AA /au·bohr⁸  :        795.450478
 Mol. α(0) /au        :          9.428780


Wiberg/Mayer (AO) data.
largest (>0.10) Wiberg bond orders for each atom

 ---------------------------------------------------------------------------
     #   Z sym  total        # sym  WBO       # sym  WBO       # sym  WBO
 ---------------------------------------------------------------------------
     1   8 O    1.840 --     2 H    0.920     3 H    0.920
     2   1 H    0.921 --     1 O    0.920
     3   1 H    0.921 --     1 O    0.920
 ---------------------------------------------------------------------------

Topologies differ in total number of bonds
Writing topology from bond orders to xtbtopo.mol

molecular dipole:
                 x           y           z       tot (Debye)
 q only:        0.000      -0.000      -0.625
   full:        0.000      -0.000      -0.894       2.271
molecular quadrupole (traceless):
                xx          xy          yy          xz          yz          zz
 q only:       -0.785       0.000       0.946       0.000       0.000      -0.162
  q+dip:       -0.986       0.000       1.200      -0.000       0.000      -0.213
   full:       -1.250       0.000       1.417      -0.000       0.000      -0.167


           -------------------------------------------------
          | TOTAL ENERGY               -5.070370761845 Eh   |
          | GRADIENT NORM               0.007221585093 Eh/α |
          | HOMO-LUMO GAP              14.629673576893 eV   |
           -------------------------------------------------

------------------------------------------------------------------------
 * finished run on 2024/04/08 at 19:30:08.361     
------------------------------------------------------------------------
 total:
 * wall-time:     0 d,  0 h,  0 min,  0.025 sec
 *  cpu-time:     0 d,  0 h,  0 min,  0.121 sec
 * ratio c/w:     4.884 speedup
 SCF:
 * wall-time:     0 d,  0 h,  0 min,  0.006 sec
 *  cpu-time:     0 d,  0 h,  0 min,  0.030 sec
 * ratio c/w:     5.323 speedup

