[Molden Format]
made by pyscf v[2.5.0]
[Atoms] (AU)
O   1   8     0.00000000000000     0.00000000000000     0.22166487441148
H   2   1     0.00000000000000     1.43090062152066    -0.88665949764593
H   3   1     0.00000000000000    -1.43090062152066    -0.88665949764593
[GTO]
1 0
 s    6 1.00
          27032.382631  0.00057227335211155
          4052.3871392  0.0044353233492995
           922.3272271   0.023020107706038
          261.24070989   0.092822490667928
          85.354641351    0.29378500009671
          31.035035245    0.67401604501641
 s    2 1.00
          12.260860728    0.63839937025506
          4.9987076005    0.39534587125718
 s    1 1.00
          1.1703108158                   1
 s    1 1.00
         0.46474740994                   1
 s    1 1.00
         0.18504536357                   1
 p    4 1.00
          63.274954801   0.012018332222616
          14.627049379   0.083005421790056
          4.4501223456    0.31991743925964
          1.5275799647    0.70715542916104
 p    1 1.00
         0.52935117943                   1
 p    1 1.00
          0.1747842127                   1
 d    1 1.00
                 2.314                   1
 d    1 1.00
                 0.645                   1
 f    1 1.00
                 1.428                   1

2 0
 s    3 1.00
             34.061341   0.025439307208879
             5.1235746    0.19008594890375
             1.1646626    0.85244113011042
 s    1 1.00
            0.32723041                   1
 s    1 1.00
            0.10307241                   1
 p    1 1.00
                 1.407                   1
 p    1 1.00
                 0.388                   1
 d    1 1.00
                 1.057                   1

3 0
 s    3 1.00
             34.061341   0.025439307208879
             5.1235746    0.19008594890375
             1.1646626    0.85244113011042
 s    1 1.00
            0.32723041                   1
 s    1 1.00
            0.10307241                   1
 p    1 1.00
                 1.407                   1
 p    1 1.00
                 0.388                   1
 d    1 1.00
                 1.057                   1

[5d]
[7f]
[9g]

[MO]
 Sym= A1
 Ene=               0
 Spin= Alpha
 Occup=    1.00000
   1      0.43506864970365
   2       0.6396333876862
   3     0.034076623504643
   4    -0.019254110627114
   5    0.0064048893353364
   6                     0
   7                     0
   8    -0.002103389761735
   9                     0
  10                     0
  11    0.0019709721043942
  12                     0
  13                     0
  14    -0.00042026788043395
  15    7.0641977776418e-05
  16                     0
  17                     0
  18    -0.00044980177939817
  19                     0
  20    -0.0002397347593345
  21                     0
  22                     0
  23    0.00048496982560161
  24                     0
  25    8.8451083473099e-05
  26                     0
  27                     0
  28    6.2161808839663e-05
  29                     0
  30                     0
  31                     0
  32    0.0004850949935287
  33    0.0010789017926275
  34    -0.0010435310787781
  35                     0
  36    0.00020576314671608
  37    -0.0002739630514654
  38                     0
  39    -0.00059047918109902
  40    0.00041079148676246
  41    -0.00011874050441686
  42                     0
  43    0.00076456536266423
  44    0.00038551712768909
  45                     0
  46    0.0004850949935287
  47    0.0010789017926275
  48    -0.0010435310787781
  49                     0
  50    -0.00020576314671608
  51    -0.0002739630514654
  52                     0
  53    0.00059047918109902
  54    0.00041079148676246
  55    -0.00011874050441686
  56                     0
  57    -0.00076456536266423
  58    0.00038551712768909
  59                     0
 Sym= A1
 Ene=               1
 Spin= Alpha
 Occup=    1.00000
   1    -0.097679576090058
   2      -0.2295969034283
   3      0.34218446255107
   4      0.40631785895912
   5      0.14553421753228
   6                     0
   7                     0
   8    -0.087177324345577
   9                     0
  10                     0
  11    -0.059007399681109
  12                     0
  13                     0
  14    -0.0071991465938427
  15     0.001377098269065
  16                     0
  17                     0
  18    -0.0038903811487678
  19                     0
  20    0.0032555193798568
  21                     0
  22                     0
  23    -0.0054160748938768
  24                     0
  25    -0.00016118653792802
  26                     0
  27                     0
  28    0.00069807948415232
  29                     0
  30                     0
  31                     0
  32     0.096544145321526
  33      0.08638366790103
  34    0.0075083691734453
  35                     0
  36    -0.013252267094679
  37    0.0090548769302504
  38                     0
  39    -0.013133292624977
  40    0.0069240451630482
  41    -3.6748961557928e-05
  42                     0
  43    -0.0041263642512529
  44    -0.0032280395819562
  45                     0
  46     0.096544145321526
  47      0.08638366790103
  48    0.0075083691734453
  49                     0
  50     0.013252267094679
  51    0.0090548769302504
  52                     0
  53     0.013133292624977
  54    0.0069240451630482
  55    -3.6748961557928e-05
  56                     0
  57    0.0041263642512529
  58    -0.0032280395819562
  59                     0
 Sym= B2
 Ene=               2
 Spin= Alpha
 Occup=    1.00000
   1                     0
   2                     0
   3                     0
   4                     0
   5                     0
   6                     0
   7      0.38775096993277
   8                     0
   9                     0
  10      0.26667488572166
  11                     0
  12                     0
  13      0.10908379485193
  14                     0
  15                     0
  16                     0
  17    -0.011757197549125
  18                     0
  19                     0
  20                     0
  21                     0
  22    -0.011430143739108
  23                     0
  24                     0
  25                     0
  26                     0
  27    -0.0008601593130845
  28                     0
  29                     0
  30                     0
  31    -0.0018629257366867
  32      0.15101225798559
  33      0.21573206476674
  34     0.069900805573638
  35                     0
  36    -0.011341418632616
  37     0.014494667169723
  38                     0
  39     -0.01334238215971
  40     0.020645299539444
  41    0.0023436538829758
  42                     0
  43    -0.0061860872400869
  44    -0.0027661622421016
  45                     0
  46     -0.15101225798559
  47     -0.21573206476674
  48    -0.069900805573638
  49                     0
  50    -0.011341418632616
  51    -0.014494667169723
  52                     0
  53     -0.01334238215971
  54    -0.020645299539444
  55    -0.0023436538829758
  56                     0
  57    -0.0061860872400869
  58    0.0027661622421016
  59                     0
 Sym= A1
 Ene=               3
 Spin= Alpha
 Occup=    1.00000
   1    -0.036917783753031
   2    -0.088230060757541
   3      0.13488977963896
   4      0.20528429476744
   5      0.25485178185494
   6                     0
   7                     0
   8      0.41762622480221
   9                     0
  10                     0
  11      0.30712632966158
  12                     0
  13                     0
  14      0.21344566038996
  15    -0.0059367656910238
  16                     0
  17                     0
  18    0.0020610123338607
  19                     0
  20     -0.01496716597439
  21                     0
  22                     0
  23    0.00013848110163553
  24                     0
  25    0.00073271530011682
  26                     0
  27                     0
  28    -0.001686922750791
  29                     0
  30                     0
  31                     0
  32    -0.087247161298382
  33     -0.14139412288642
  34    -0.046128840788688
  35                     0
  36     0.010444205359036
  37    0.0011440419579745
  38                     0
  39     0.021882486051822
  40     0.017608395886882
  41    0.0033725077251443
  42                     0
  43    0.00043242956396277
  44    0.0040900289240894
  45                     0
  46    -0.087247161298382
  47     -0.14139412288642
  48    -0.046128840788688
  49                     0
  50    -0.010444205359036
  51    0.0011440419579745
  52                     0
  53    -0.021882486051822
  54     0.017608395886882
  55    0.0033725077251443
  56                     0
  57    -0.00043242956396277
  58    0.0040900289240894
  59                     0
 Sym= B1
 Ene=               4
 Spin= Alpha
 Occup=    1.00000
   1                     0
   2                     0
   3                     0
   4                     0
   5                     0
   6      0.47716624466944
   7                     0
   8                     0
   9       0.3734914244879
  10                     0
  11                     0
  12      0.31754049935454
  13                     0
  14                     0
  15                     0
  16    -0.005475298016639
  17                     0
  18                     0
  19                     0
  20                     0
  21    -0.017128208173634
  22                     0
  23                     0
  24                     0
  25                     0
  26    0.0012364472531231
  27                     0
  28                     0
  29                     0
  30    -0.0030546702824573
  31                     0
  32                     0
  33                     0
  34                     0
  35     0.011137784302073
  36                     0
  37                     0
  38     0.034388176469261
  39                     0
  40                     0
  41                     0
  42    0.0034576076713775
  43                     0
  44                     0
  45    -0.0052701600915619
  46                     0
  47                     0
  48                     0
  49     0.011137784302073
  50                     0
  51                     0
  52     0.034388176469261
  53                     0
  54                     0
  55                     0
  56    0.0034576076713775
  57                     0
  58                     0
  59    0.0052701600915619
 Sym= A1
 Ene=               5
 Spin= Alpha
 Occup=    0.00000
   1    -0.033133310047925
   2    -0.082545847549045
   3       0.1657192854503
   4     0.084294064522164
   5       1.4261025331386
   6                     0
   7                     0
   8     -0.15261417731823
   9                     0
  10                     0
  11     -0.18764851337768
  12                     0
  13                     0
  14     -0.43046475274256
  15    0.00046901489666129
  16                     0
  17                     0
  18    0.0035509177182241
  19                     0
  20     0.016241361566591
  21                     0
  22                     0
  23    -0.018942594053573
  24                     0
  25    -0.0003784391161544
  26                     0
  27                     0
  28     0.001207836048735
  29                     0
  30                     0
  31                     0
  32    -0.032610516831456
  33     -0.24885148987444
  34     -0.98280562647073
  35                     0
  36    -0.015874912068067
  37    0.0086521917402939
  38                     0
  39     0.065431061719274
  40    -0.035276741336117
  41    -0.00039176598574115
  42                     0
  43    0.0021400811092915
  44    0.0013858099971979
  45                     0
  46    -0.032610516831456
  47     -0.24885148987444
  48     -0.98280562647073
  49                     0
  50     0.015874912068067
  51    0.0086521917402939
  52                     0
  53    -0.065431061719274
  54    -0.035276741336117
  55    -0.00039176598574115
  56                     0
  57    -0.0021400811092915
  58    0.0013858099971979
  59                     0
 Sym= B2
 Ene=               6
 Spin= Alpha
 Occup=    0.00000
   1                     0
   2                     0
   3                     0
   4                     0
   5                     0
   6                     0
   7     -0.24750120848658
   8                     0
   9                     0
  10     -0.19921560865957
  11                     0
  12                     0
  13     -0.75049213853303
  14                     0
  15                     0
  16                     0
  17    -0.0030365338472013
  18                     0
  19                     0
  20                     0
  21                     0
  22     0.014180625271817
  23                     0
  24                     0
  25                     0
  26                     0
  27    0.0014320730047009
  28                     0
  29                     0
  30                     0
  31    0.00066985557429848
  32     0.032424301278526
  33      0.12496798858359
  34       1.6832532248438
  35                     0
  36     0.014550635222543
  37    -0.015643773386231
  38                     0
  39    -0.034431380279098
  40      0.03011275379152
  41    -0.0021980628340836
  42                     0
  43    -0.0011985001211173
  44    -0.0027561798519455
  45                     0
  46    -0.032424301278526
  47     -0.12496798858359
  48      -1.6832532248438
  49                     0
  50     0.014550635222543
  51     0.015643773386231
  52                     0
  53    -0.034431380279098
  54     -0.03011275379152
  55    0.0021980628340836
  56                     0
  57    -0.0011985001211173
  58    0.0027561798519455
  59                     0
 Sym= B2
 Ene=               7
 Spin= Alpha
 Occup=    0.00000
   1                     0
   2                     0
   3                     0
   4                     0
   5                     0
   6                     0
   7     -0.12537327613777
   8                     0
   9                     0
  10     -0.30876368969484
  11                     0
  12                     0
  13      -1.1175292720007
  14                     0
  15                     0
  16                     0
  17    -0.025896687739027
  18                     0
  19                     0
  20                     0
  21                     0
  22     0.099619506588039
  23                     0
  24                     0
  25                     0
  26                     0
  27    -0.011249260086947
  28                     0
  29                     0
  30                     0
  31     0.012092900485935
  32      0.12354060945905
  33        1.394554372212
  34     -0.55991571707424
  35                     0
  36    -0.041123020668818
  37      0.02212343070266
  38                     0
  39    -0.040924830733156
  40    -0.023686645870211
  41    -0.0042215920008518
  42                     0
  43    -0.023791013719138
  44    -0.011250490845631
  45                     0
  46     -0.12354060945905
  47       -1.394554372212
  48      0.55991571707424
  49                     0
  50    -0.041123020668818
  51     -0.02212343070266
  52                     0
  53    -0.040924830733156
  54     0.023686645870211
  55    0.0042215920008518
  56                     0
  57    -0.023791013719138
  58     0.011250490845631
  59                     0
 Sym= A1
 Ene=               8
 Spin= Alpha
 Occup=    0.00000
   1     0.016583424927516
   2     0.032246830291534
   3      0.14411072724983
   4      -1.0922706976837
   5      -2.0458090695385
   6                     0
   7                     0
   8     -0.28488912802541
   9                     0
  10                     0
  11    -0.076329624420267
  12                     0
  13                     0
  14       2.0238664715592
  15     0.010656342313702
  16                     0
  17                     0
  18     -0.01357246390418
  19                     0
  20    -0.050008169066173
  21                     0
  22                     0
  23      0.16751031308416
  24                     0
  25    -0.010788931784462
  26                     0
  27                     0
  28    -0.024875901895138
  29                     0
  30                     0
  31                     0
  32    -0.0083459205557445
  33       1.4643993662886
  34      0.39874736835523
  35                     0
  36     -0.02871035126195
  37       0.0247991187361
  38                     0
  39     -0.47609051422068
  40      0.32292814562192
  41    0.0012387435328552
  42                     0
  43    -0.045080942624068
  44    -0.034390084843153
  45                     0
  46    -0.0083459205557445
  47       1.4643993662886
  48      0.39874736835523
  49                     0
  50      0.02871035126195
  51       0.0247991187361
  52                     0
  53      0.47609051422068
  54      0.32292814562192
  55    0.0012387435328552
  56                     0
  57     0.045080942624068
  58    -0.034390084843153
  59                     0
 Sym= A1
 Ene=               9
 Spin= Alpha
 Occup=    0.00000
   1     0.032323249947101
   2     0.075704031334282
   3    -0.067771642966029
   4     -0.45513464643449
   5      0.72216779433518
   6                     0
   7                     0
   8       0.1950215507612
   9                     0
  10                     0
  11      0.17367043831781
  12                     0
  13                     0
  14    -0.012221912098473
  15    -0.0094160799982169
  16                     0
  17                     0
  18    -0.012885048628825
  19                     0
  20     0.027071327824658
  21                     0
  22                     0
  23    -0.027501844781764
  24                     0
  25    -0.0067163225836242
  26                     0
  27                     0
  28    -0.0091087134402995
  29                     0
  30                     0
  31                     0
  32      0.12732801310142
  33      0.89106539182746
  34     -0.83562111586955
  35                     0
  36    -0.020481783844031
  37     0.013598162535165
  38                     0
  39      0.32818611084655
  40    -0.022916142734872
  41     0.013063998043069
  42                     0
  43    -0.002601206959971
  44    -0.0003366595162968
  45                     0
  46      0.12732801310142
  47      0.89106539182746
  48     -0.83562111586955
  49                     0
  50     0.020481783844031
  51     0.013598162535165
  52                     0
  53     -0.32818611084655
  54    -0.022916142734872
  55     0.013063998043069
  56                     0
  57     0.002601206959971
  58    -0.0003366595162968
  59                     0
 Sym= B1
 Ene=              10
 Spin= Alpha
 Occup=    0.00000
   1                     0
   2                     0
   3                     0
   4                     0
   5                     0
   6     -0.31634310453704
   7                     0
   8                     0
   9     -0.69153837868613
  10                     0
  11                     0
  12         1.26758163131
  13                     0
  14                     0
  15                     0
  16    0.0075860314719726
  17                     0
  18                     0
  19                     0
  20                     0
  21    -0.012252157727413
  22                     0
  23                     0
  24                     0
  25                     0
  26    -0.00045807466673759
  27                     0
  28                     0
  29                     0
  30    0.0015440943465467
  31                     0
  32                     0
  33                     0
  34                     0
  35    0.0062195621546754
  36                     0
  37                     0
  38     -0.04034620913997
  39                     0
  40                     0
  41                     0
  42    -0.00032131360148614
  43                     0
  44                     0
  45    0.0014500139959588
  46                     0
  47                     0
  48                     0
  49    0.0062195621546754
  50                     0
  51                     0
  52     -0.04034620913997
  53                     0
  54                     0
  55                     0
  56    -0.00032131360148614
  57                     0
  58                     0
  59    -0.0014500139959588
 Sym= B2
 Ene=              11
 Spin= Alpha
 Occup=    0.00000
   1                     0
   2                     0
   3                     0
   4                     0
   5                     0
   6                     0
   7      0.35308589334993
   8                     0
   9                     0
  10     0.038767961344304
  11                     0
  12                     0
  13      -2.5386301222147
  14                     0
  15                     0
  16                     0
  17    -0.018316936034315
  18                     0
  19                     0
  20                     0
  21                     0
  22       0.2834120214471
  23                     0
  24                     0
  25                     0
  26                     0
  27    -0.015437137707454
  28                     0
  29                     0
  30                     0
  31     0.011330365500029
  32    -0.060009493774361
  33      0.82153687818143
  34       1.9076526088033
  35                     0
  36    -0.030426889558493
  37       0.0169198050047
  38                     0
  39     -0.52773959319132
  40      0.47233613551862
  41    0.00012407938671051
  42                     0
  43    -0.048293982837871
  44    -0.031631460783565
  45                     0
  46     0.060009493774361
  47     -0.82153687818143
  48      -1.9076526088033
  49                     0
  50    -0.030426889558493
  51      -0.0169198050047
  52                     0
  53     -0.52773959319132
  54     -0.47233613551862
  55    -0.00012407938671051
  56                     0
  57    -0.048293982837871
  58     0.031631460783565
  59                     0
 Sym= A1
 Ene=              12
 Spin= Alpha
 Occup=    0.00000
   1     0.046613256840961
   2      0.09983035079691
   3    -0.020009521116676
   4      -1.2836476943358
   5       4.9703939284008
   6                     0
   7                     0
   8     0.041988448873796
   9                     0
  10                     0
  11     -0.35483606273221
  12                     0
  13                     0
  14     -0.84438211007175
  15     0.010134364434958
  16                     0
  17                     0
  18     0.023706186521529
  19                     0
  20    -0.018681128713499
  21                     0
  22                     0
  23     -0.15769939727269
  24                     0
  25     0.013278322135837
  26                     0
  27                     0
  28     0.018021866868129
  29                     0
  30                     0
  31                     0
  32      0.02112514870783
  33      -1.2548453250764
  34     -0.99545414152699
  35                     0
  36     0.023886932334233
  37    -0.0025467864325445
  38                     0
  39      0.21923345266405
  40     -0.56797542737438
  41    -0.019888364160406
  42                     0
  43     0.039079209467974
  44     0.015329550951132
  45                     0
  46      0.02112514870783
  47      -1.2548453250764
  48     -0.99545414152699
  49                     0
  50    -0.023886932334233
  51    -0.0025467864325445
  52                     0
  53     -0.21923345266405
  54     -0.56797542737438
  55    -0.019888364160406
  56                     0
  57    -0.039079209467974
  58     0.015329550951132
  59                     0
 Sym= A1
 Ene=              13
 Spin= Alpha
 Occup=    0.00000
   1     0.014068101262587
   2     0.029391105078133
   3    -0.040010350920419
   4     -0.34578538541225
   5        3.767139727673
   6                     0
   7                     0
   8    -0.085490242153179
   9                     0
  10                     0
  11     -0.69604914452319
  12                     0
  13                     0
  14      -1.7612236690002
  15    -0.032598129979598
  16                     0
  17                     0
  18    0.00068841448189986
  19                     0
  20      0.10735049821938
  21                     0
  22                     0
  23     -0.03778308328784
  24                     0
  25    -0.0040874071419169
  26                     0
  27                     0
  28     0.022069639518519
  29                     0
  30                     0
  31                     0
  32    0.0061908395846581
  33      -1.8341297125916
  34     -0.41989379647566
  35                     0
  36    0.0097158256752472
  37    -0.046808324200772
  38                     0
  39      0.79443696545313
  40      0.39092484393922
  41     0.032926303762716
  42                     0
  43     0.011830458413939
  44      0.05709823550619
  45                     0
  46    0.0061908395846581
  47      -1.8341297125916
  48     -0.41989379647566
  49                     0
  50    -0.0097158256752472
  51    -0.046808324200772
  52                     0
  53     -0.79443696545313
  54      0.39092484393922
  55     0.032926303762716
  56                     0
  57    -0.011830458413939
  58      0.05709823550619
  59                     0
 Sym= A2
 Ene=              14
 Spin= Alpha
 Occup=    0.00000
   1                     0
   2                     0
   3                     0
   4                     0
   5                     0
   6                     0
   7                     0
   8                     0
   9                     0
  10                     0
  11                     0
  12                     0
  13                     0
  14                     0
  15                     0
  16                     0
  17                     0
  18                     0
  19     0.026382486318903
  20                     0
  21                     0
  22                     0
  23                     0
  24    -0.0062882841122943
  25                     0
  26                     0
  27                     0
  28                     0
  29     0.014008562059546
  30                     0
  31                     0
  32                     0
  33                     0
  34                     0
  35    -0.047745057020887
  36                     0
  37                     0
  38      0.82779678950275
  39                     0
  40                     0
  41                     0
  42       0.0244281872503
  43                     0
  44                     0
  45    -0.012501610220695
  46                     0
  47                     0
  48                     0
  49     0.047745057020887
  50                     0
  51                     0
  52     -0.82779678950275
  53                     0
  54                     0
  55                     0
  56      -0.0244281872503
  57                     0
  58                     0
  59    -0.012501610220695
 Sym= B1
 Ene=              15
 Spin= Alpha
 Occup=    0.00000
   1                     0
   2                     0
   3                     0
   4                     0
   5                     0
   6    -0.076783573981991
   7                     0
   8                     0
   9     -0.26203971831437
  10                     0
  11                     0
  12     -0.86847856653225
  13                     0
  14                     0
  15                     0
  16    -0.021765578561044
  17                     0
  18                     0
  19                     0
  20                     0
  21    -0.027921117362501
  22                     0
  23                     0
  24                     0
  25                     0
  26    -0.0044029491237362
  27                     0
  28                     0
  29                     0
  30      0.01570084630593
  31                     0
  32                     0
  33                     0
  34                     0
  35    -0.059441168980849
  36                     0
  37                     0
  38      0.96869085235607
  39                     0
  40                     0
  41                     0
  42    0.0022035048951058
  43                     0
  44                     0
  45    -0.039124131467621
  46                     0
  47                     0
  48                     0
  49    -0.059441168980849
  50                     0
  51                     0
  52      0.96869085235607
  53                     0
  54                     0
  55                     0
  56    0.0022035048951058
  57                     0
  58                     0
  59     0.039124131467621
 Sym= B2
 Ene=              16
 Spin= Alpha
 Occup=    0.00000
   1                     0
   2                     0
   3                     0
   4                     0
   5                     0
   6                     0
   7    -0.059164468708399
   8                     0
   9                     0
  10     -0.44413786937379
  11                     0
  12                     0
  13      -1.4836595062074
  14                     0
  15                     0
  16                     0
  17    -3.9255504754881e-05
  18                     0
  19                     0
  20                     0
  21                     0
  22     0.091562545205139
  23                     0
  24                     0
  25                     0
  26                     0
  27    -0.00080936590473702
  28                     0
  29                     0
  30                     0
  31     0.012652851944606
  32    -0.003466144288108
  33       0.8868810659991
  34      0.27768305852562
  35                     0
  36    -0.063091980286035
  37    -0.038778627499662
  38                     0
  39      0.56226842482796
  40       1.0571050089277
  41     0.015308062000056
  42                     0
  43    -0.020526203534308