 argument  1 = water.in



============================== echo of input deck ==============================
# echo input file to output
echo
title title  "VEM/TDDFT-B3LYP for Water in Toluene with Dispersion Correction"

memory total 16 gb

# Define the molecular geometry
geometry units angstroms
  O     0.000000     0.000000     0.000000
  H     0.000000     0.000000     0.957840
  H     0.000000     0.926627    -0.239622
end

# Basis set
basis
  * library 6-31+g*
end

# DFT calculation with dispersion and solvation
dft
  xc b3lyp
  cosmo
    do_cosmo_vem 1
    solvent toluene
  end
  maxiter 100
end

# Ground state optimization
task dft optimize

# TD-DFT calculation for singlet excited states (S1)
tddft
  nroots 5
  singlet
  cosmo
    solvent toluene
  end
end

task tddft energy

# TD-DFT calculation for triplet state (T1)
tddft
  nroots 3
  triplet
  cosmo
    solvent toluene
  end
end

task tddft energy

grad
  root 1
  solve_thresh 1d-05
end
task tddft gradient

# Calculate the energy difference for fluorescence (S1-S0) and T1-S1
property
  difference
    tddft_singlet_1
    tddft_triplet_1
end

task property
================================================================================


                                         
                                         


             Northwest Computational Chemistry Package (NWChem) 7.0.2
             --------------------------------------------------------


                    Environmental Molecular Sciences Laboratory
                       Pacific Northwest National Laboratory
                                Richland, WA 99352

                              Copyright (c) 1994-2020
                       Pacific Northwest National Laboratory
                            Battelle Memorial Institute

             NWChem is an open-source computational chemistry package
                        distributed under the terms of the
                      Educational Community License (ECL) 2.0
             A copy of the license is included with this distribution
                              in the LICENSE.TXT file

                                  ACKNOWLEDGMENT
                                  --------------

            This software and its documentation were developed at the
            EMSL at Pacific Northwest National Laboratory, a multiprogram
            national laboratory, operated for the U.S. Department of Energy
            by Battelle under Contract Number DE-AC05-76RL01830. Support
            for this work was provided by the Department of Energy Office
            of Biological and Environmental Research, Office of Basic
            Energy Sciences, and the Office of Advanced Scientific Computing.


           Job information
           ---------------

    hostname        = taamangtchu-Aspire-A515-45
    program         = nwchem
    date            = Fri Jun 28 11:22:40 2024

    compiled        = Sat_Apr_09_17:12:10_2022
    source          = /build/nwchem-f1f4gx/nwchem-7.0.2/build-openmpi
    nwchem branch   = 7.0.2
    nwchem revision = N/A
    ga revision     = 5.8.1
    use scalapack   = T
    input           = water.in
    prefix          = water.
    data base       = ./water.db
    status          = restart
    nproc           =        1
    time left       =     -1s



           Memory information
           ------------------

    heap     =  536870912 doubles =   4096.0 Mbytes
    stack    =  536870909 doubles =   4096.0 Mbytes
    global   = 1073741824 doubles =   8192.0 Mbytes (distinct from heap & stack)
    total    = 2147483645 doubles =  16384.0 Mbytes
    verify   = yes
    hardfail = no 


           Directory information
           ---------------------

  0 permanent = .
  0 scratch   = .



           Geometries in the database
           --------------------------

  There are no geometries in the database


           Basis sets in the database
           --------------------------

  There are no basis sets in the database



                                NWChem Input Module
                                -------------------


 ------------------------------------------------------------------------
 input_title: title <string title>                   0
 ------------------------------------------------------------------------
 ------------------------------------------------------------------------
  current input line : 
     3: title title  "VEM/TDDFT-B3LYP for Water in Toluene with Dispersion Correction"
 ------------------------------------------------------------------------
 ------------------------------------------------------------------------
 There is an error in the input file
 ------------------------------------------------------------------------
 For more information see the NWChem manual at https://github.com/nwchemgit/nwchem/wiki


 For further details see manual section:                                                                                                                                                                                                                                                                
