      -----------------------------------------------------------      
     |                   =====================                   |     
     |                           x T B                           |     
     |                   =====================                   |     
     |                         S. Grimme                         |     
     |          Mulliken Center for Theoretical Chemistry        |     
     |                    University of Bonn                     |     
      -----------------------------------------------------------      

   * xtb version 6.5.1 (fef0646) compiled by 'conda@b96dff2e9fd6' on 2023-01-04

   xtb is free software: you can redistribute it and/or modify it under
   the terms of the GNU Lesser General Public License as published by
   the Free Software Foundation, either version 3 of the License, or
   (at your option) any later version.
   
   xtb is distributed in the hope that it will be useful,
   but WITHOUT ANY WARRANTY; without even the implied warranty of
   MERCHANTABILITY or FITNESS FOR A PARTICULAR PURPOSE.  See the
   GNU Lesser General Public License for more details.
   
   Cite this work as:
   * C. Bannwarth, E. Caldeweyher, S. Ehlert, A. Hansen, P. Pracht,
     J. Seibert, S. Spicher, S. Grimme, WIREs Comput. Mol. Sci., 2020, 11,
     e01493. DOI: 10.1002/wcms.1493
   
   for GFN2-xTB:
   * C. Bannwarth, S. Ehlert and S. Grimme., J. Chem. Theory Comput., 2019,
     15, 1652-1671. DOI: 10.1021/acs.jctc.8b01176
   for GFN1-xTB:
   * S. Grimme, C. Bannwarth, P. Shushkov, J. Chem. Theory Comput., 2017,
     13, 1989-2009. DOI: 10.1021/acs.jctc.7b00118
   for GFN0-xTB:
   * P. Pracht, E. Caldeweyher, S. Ehlert, S. Grimme, ChemRxiv, 2019, preprint.
     DOI: 10.26434/chemrxiv.8326202.v1
   for GFN-FF:
   * S. Spicher and S. Grimme, Angew. Chem. Int. Ed., 2020, 59, 15665-15673.
     DOI: 10.1002/anie.202004239
   
   for ALPB and GBSA implicit solvation:
   * S. Ehlert, M. Stahn, S. Spicher, S. Grimme, J. Chem. Theory Comput.,
     2021, 17, 4250-4261. DOI: 10.1021/acs.jctc.1c00471
   
   for DFT-D4:
   * E. Caldeweyher, C. Bannwarth and S. Grimme, J. Chem. Phys., 2017,
     147, 034112. DOI: 10.1063/1.4993215
   * E. Caldeweyher, S. Ehlert, A. Hansen, H. Neugebauer, S. Spicher,
     C. Bannwarth and S. Grimme, J. Chem. Phys., 2019, 150, 154122.
     DOI: 10.1063/1.5090222
   * E. Caldeweyher, J.-M. Mewes, S. Ehlert and S. Grimme, Phys. Chem. Chem. Phys.
     2020, 22, 8499-8512. DOI: 10.1039/D0CP00502A
   
   for sTDA-xTB:
   * S. Grimme and C. Bannwarth, J. Chem. Phys., 2016, 145, 054103.
     DOI: 10.1063/1.4959605
   
   in the mass-spec context:
   * V. Asgeirsson, C. Bauer and S. Grimme, Chem. Sci., 2017, 8, 4879.
     DOI: 10.1039/c7sc00601b
   * J. Koopman and S. Grimme, ACS Omega 2019, 4, 12, 15120-15133.
     DOI: 10.1021/acsomega.9b02011
   
   for metadynamics refer to:
   * S. Grimme, J. Chem. Theory Comput., 2019, 155, 2847-2862
     DOI: 10.1021/acs.jctc.9b00143
   
   for SPH calculations refer to:
   * S. Spicher and S. Grimme, J. Chem. Theory Comput., 2021, 17, 1701-1714
     DOI: 10.1021/acs.jctc.0c01306
   
   with help from (in alphabetical order)
   P. Atkinson, C. Bannwarth, F. Bohle, G. Brandenburg, E. Caldeweyher
   M. Checinski, S. Dohm, S. Ehlert, S. Ehrlich, I. Gerasimov, C. Hölzer
   A. Katbashev, J. Koopman, C. Lavigne, S. Lehtola, F. März, M. Müller,
   F. Musil, H. Neugebauer, J. Pisarek, C. Plett, P. Pracht, F. Pultar,
   J. Seibert, P. Shushkov, S. Spicher, M. Stahn, M. Steiner, T. Strunk,
   J. Stückrath, T. Rose, and J. Unsleber
   
 * started run on 2024/06/26 at 21:13:50.717     

           -------------------------------------------------
          |                Calculation Setup                |
           -------------------------------------------------

          program call               : xtb crest_best.xyz --gfn 2 --opt vtight --parallel 2
          coordinate file            : crest_best.xyz
          omp threads                :                     2

   ID    Z sym.   atoms
    1    5 B      1
    2    7 N      2, 9
    3    6 C      3-8, 10-12
    4    9 F      13, 14
    5    1 H      15-21

           -------------------------------------------------
          |                 G F N 2 - x T B                 |
           -------------------------------------------------

        Reference                      10.1021/acs.jctc.8b01176
      * Hamiltonian:
        H0-scaling (s, p, d)           1.850000    2.230000    2.230000
        zeta-weighting                 0.500000
      * Dispersion:
        s8                             2.700000
        a1                             0.520000
        a2                             5.000000
        s9                             5.000000
      * Repulsion:
        kExp                           1.500000    1.000000
        rExp                           1.000000
      * Coulomb:
        alpha                          2.000000
        third order                    shell-resolved
        anisotropic                    true
        a3                             3.000000
        a5                             4.000000
        cn-shift                       1.200000
        cn-exp                         4.000000
        max-rad                        5.000000


          ...................................................
          :                      SETUP                      :
          :.................................................:
          :  # basis functions                  63          :
          :  # atomic orbitals                  63          :
          :  # shells                           35          :
          :  # electrons                        70          :
          :  max. iterations                   250          :
          :  Hamiltonian                  GFN2-xTB          :
          :  restarted?                      false          :
          :  GBSA solvation                  false          :
          :  PC potential                    false          :
          :  electronic temp.          300.0000000     K    :
          :  accuracy                    1.0000000          :
          :  -> integral cutoff          0.2500000E+02      :
          :  -> integral neglect         0.1000000E-07      :
          :  -> SCF convergence          0.1000000E-05 Eh   :
          :  -> wf. convergence          0.1000000E-03 e    :
          :  Broyden damping             0.4000000          :
          ...................................................

 iter      E             dE          RMSdq      gap      omega  full diag
   1    -39.8646462 -0.398646E+02  0.570E+00    1.93       0.0  T
   2    -39.9988100 -0.134164E+00  0.387E+00    1.68       1.0  T
   3    -39.9913013  0.750871E-02  0.165E+00    1.91       1.0  T
   4    -40.0181029 -0.268016E-01  0.686E-01    1.70       1.0  T
   5    -40.0255334 -0.743048E-02  0.252E-01    1.77       1.0  T
   6    -40.0259014 -0.368003E-03  0.123E-01    1.74       1.0  T
   7    -40.0260364 -0.134998E-03  0.600E-02    1.76       1.0  T
   8    -40.0260827 -0.462890E-04  0.138E-02    1.76       1.6  T
   9    -40.0260847 -0.200163E-05  0.532E-03    1.76       4.1  T
  10    -40.0260848 -0.583444E-07  0.251E-03    1.76       8.7  T
  11    -40.0260848 -0.358551E-07  0.166E-03    1.76      13.1  T
  12    -40.0260848 -0.347852E-07  0.530E-04    1.76      41.1  T
  13    -40.0260848 -0.562525E-08  0.170E-04    1.76     128.3  T

   *** convergence criteria satisfied after 13 iterations ***

         #    Occupation            Energy/Eh            Energy/eV
      -------------------------------------------------------------
         1        2.0000           -0.7606083             -20.6972
       ...           ...                  ...                  ...
        29        2.0000           -0.4506348             -12.2624
        30        2.0000           -0.4427116             -12.0468
        31        2.0000           -0.4382316             -11.9249
        32        2.0000           -0.4284480             -11.6587
        33        2.0000           -0.4225838             -11.4991
        34        2.0000           -0.4221980             -11.4886
        35        2.0000           -0.3999545             -10.8833 (HOMO)
        36                         -0.3354009              -9.1267 (LUMO)
        37                         -0.2209909              -6.0135
        38                         -0.1959437              -5.3319
        39                         -0.1804387              -4.9100
        40                         -0.1384296              -3.7669
       ...                                ...                  ...
        63                          0.6757963              18.3894
      -------------------------------------------------------------
                  HL-Gap            0.0645535 Eh            1.7566 eV
             Fermi-level           -0.3676777 Eh          -10.0050 eV

 SCC (total)                   0 d,  0 h,  0 min,  0.019 sec
 SCC setup                      ...        0 min,  0.000 sec (  0.815%)
 Dispersion                     ...        0 min,  0.000 sec (  1.160%)
 classical contributions        ...        0 min,  0.000 sec (  0.787%)
 integral evaluation            ...        0 min,  0.002 sec (  9.237%)
 iterations                     ...        0 min,  0.012 sec ( 63.340%)
 molecular gradient             ...        0 min,  0.004 sec ( 23.153%)
 printout                       ...        0 min,  0.000 sec (  1.379%)

         :::::::::::::::::::::::::::::::::::::::::::::::::::::
         ::                     SUMMARY                     ::
         :::::::::::::::::::::::::::::::::::::::::::::::::::::
         :: total energy             -39.522763027200 Eh    ::
         :: gradient norm              0.066708695245 Eh/a0 ::
         :: HOMO-LUMO gap              1.756590954078 eV    ::
         ::.................................................::
         :: SCC energy               -40.026084830556 Eh    ::
         :: -> isotropic ES            0.086801437255 Eh    ::
         :: -> anisotropic ES         -0.003635091698 Eh    ::
         :: -> anisotropic XC          0.012917467297 Eh    ::
         :: -> dispersion             -0.021150415446 Eh    ::
         :: repulsion energy           0.503281176895 Eh    ::
         :: add. restraining           0.000000000000 Eh    ::
         :: total charge              -0.000000000000 e     ::
         :::::::::::::::::::::::::::::::::::::::::::::::::::::

      ----------------------------------------------------------- 
     |                   =====================                   |
     |                        A N C O P T                        |
     |                   =====================                   |
     |               Approximate Normal Coordinate               |
     |                Rational Function Optimizer                |
      ----------------------------------------------------------- 

          ...................................................
          :                      SETUP                      :
          :.................................................:
          :   optimization level         verytight          :
          :   max. optcycles                   420          :
          :   ANC micro-cycles                  20          :
          :   degrees of freedom                57          :
          :.................................................:
          :   RF solver                   davidson          :
          :   write xtbopt.log                true          :
          :   linear?                        false          :
          :   energy convergence         0.1000000E-06 Eh   :
          :   grad. convergence          0.2000000E-03 Eh/α :
          :   maximium RF displ.         1.0000000          :
          :   Hlow (freq-cutoff)         0.1000000E-01      :
          :   Hmax (freq-cutoff)         5.0000000          :
          :   S6 in model hess.         20.0000000          :
          ...................................................

generating ANC from model Hessian ...
Using Lindh-Hessian (1995)
 Shifting diagonal of input Hessian by    6.4055621290028050E-003
 Lowest  eigenvalues of input Hessian
    0.000000    0.000000    0.000000    0.000000    0.000000    0.000000
    0.010000    0.011440    0.016519    0.021240    0.022800    0.026477
    0.027531    0.033018    0.045678    0.050073    0.059238    0.065464
 Highest eigenvalues
    1.868788    1.901363    1.910099    1.947484    2.036148    2.157748


........................................................................
.............................. CYCLE    1 ..............................
........................................................................
   1    -40.0260848 -0.400261E+02  0.356E-05    1.76       0.0  T
   2    -40.0260848 -0.829203E-11  0.214E-05    1.76    1021.2  T
   3    -40.0260848 -0.361666E-11  0.123E-05    1.76    1768.8  T
     SCC iter.                  ...        0 min,  0.004 sec
     gradient                   ...        0 min,  0.005 sec
 * total energy  :   -39.5227630 Eh     change       -0.4078231E-09 Eh
   gradient norm :     0.0667082 Eh/α   predicted     0.0000000E+00 (-100.00%)
   displ. norm   :     0.2335298 α      lambda       -0.1054497E-01
   maximum displ.:     0.1131005 α      in ANC's #23, #27, #24, ...

........................................................................
.............................. CYCLE    2 ..............................
........................................................................
   1    -40.0447910 -0.400448E+02  0.352E-01    1.77       0.0  T
   2    -40.0448948 -0.103772E-03  0.208E-01    1.78       1.0  T
   3    -40.0448404  0.543513E-04  0.760E-02    1.77       1.0  T
   4    -40.0449179 -0.775002E-04  0.212E-02    1.78       1.0  T
   5    -40.0449250 -0.707619E-05  0.636E-03    1.78       3.4  T
   6    -40.0449250  0.756648E-08  0.385E-03    1.78       5.7  T
   7    -40.0449252 -0.202399E-06  0.102E-03    1.78      21.3  T
   8    -40.0449252 -0.137906E-07  0.498E-04    1.78      43.8  T
   9    -40.0449252 -0.197320E-08  0.291E-04    1.78      75.0  T
     SCC iter.                  ...        0 min,  0.008 sec
     gradient                   ...        0 min,  0.006 sec
 * total energy  :   -39.5296317 Eh     change       -0.6868678E-02 Eh
   gradient norm :     0.0223541 Eh/α   predicted    -0.5560193E-02 ( -19.05%)
   displ. norm   :     0.1278699 α      lambda       -0.1647906E-02
   maximum displ.:     0.0781733 α      in ANC's #6, #23, #24, ...

........................................................................
.............................. CYCLE    3 ..............................
........................................................................
   1    -40.0511568 -0.400512E+02  0.149E-01    1.79       0.0  T
   2    -40.0511730 -0.161899E-04  0.871E-02    1.79       1.0  T
   3    -40.0511648  0.821847E-05  0.301E-02    1.79       1.0  T
   4    -40.0511777 -0.129874E-04  0.632E-03    1.79       3.5  T
   5    -40.0511781 -0.350241E-06  0.313E-03    1.79       7.0  T
   6    -40.0511781 -0.584690E-08  0.166E-03    1.79      13.2  T
   7    -40.0511781 -0.471348E-07  0.681E-04    1.79      32.1  T
   8    -40.0511782 -0.626021E-08  0.299E-04    1.79      73.0  T
     SCC iter.                  ...        0 min,  0.009 sec
     gradient                   ...        0 min,  0.004 sec
 * total energy  :   -39.5305254 Eh     change       -0.8936607E-03 Eh
   gradient norm :     0.0066233 Eh/α   predicted    -0.8376429E-03 (  -6.27%)
   displ. norm   :     0.0419894 α      lambda       -0.1075000E-03
   maximum displ.:     0.0343817 α      in ANC's #6, #23, #10, ...

........................................................................
.............................. CYCLE    4 ..............................
........................................................................
   1    -40.0513042 -0.400513E+02  0.262E-02    1.79       0.0  T
   2    -40.0513056 -0.134211E-05  0.168E-02    1.79       1.3  T
   3    -40.0513052  0.382412E-06  0.764E-03    1.79       2.9  T
   4    -40.0513056 -0.395307E-06  0.409E-03    1.79       5.3  T
   5    -40.0513059 -0.284984E-06  0.982E-04    1.79      22.2  T
   6    -40.0513059 -0.243163E-08  0.421E-04    1.79      51.8  T
     SCC iter.                  ...        0 min,  0.006 sec
     gradient                   ...        0 min,  0.005 sec
 * total energy  :   -39.5306034 Eh     change       -0.7805540E-04 Eh
   gradient norm :     0.0039744 Eh/α   predicted    -0.5386031E-04 ( -31.00%)
   displ. norm   :     0.0382288 α      lambda       -0.5433287E-04
   maximum displ.:     0.0315731 α      in ANC's #6, #10, #17, ...

........................................................................
.............................. CYCLE    5 ..............................
........................................................................
   1    -40.0512289 -0.400512E+02  0.269E-02    1.79       0.0  T
   2    -40.0512306 -0.168648E-05  0.175E-02    1.79       1.2  T
   3    -40.0512304  0.148142E-06  0.803E-03    1.79       2.7  T
   4    -40.0512306 -0.185146E-06  0.415E-03    1.79       5.3  T
   5    -40.0512309 -0.257760E-06  0.121E-03    1.79      18.0  T
   6    -40.0512309 -0.879622E-08  0.563E-04    1.79      38.8  T
   7    -40.0512309 -0.613990E-08  0.215E-04    1.79     101.6  T
     SCC iter.                  ...        0 min,  0.006 sec
     gradient                   ...        0 min,  0.004 sec
 * total energy  :   -39.5306328 Eh     change       -0.2939934E-04 Eh
   gradient norm :     0.0015354 Eh/α   predicted    -0.2720965E-04 (  -7.45%)
   displ. norm   :     0.0073754 α      lambda       -0.2446392E-05
   maximum displ.:     0.0046429 α      in ANC's #6, #2, #15, ...

........................................................................
.............................. CYCLE    6 ..............................
........................................................................
   1    -40.0513015 -0.400513E+02  0.711E-03    1.79       0.0  T
   2    -40.0513016 -0.935120E-07  0.399E-03    1.79       5.5  T
   3    -40.0513016  0.712489E-08  0.186E-03    1.79      11.7  T
   4    -40.0513016 -0.204907E-07  0.762E-04    1.79      28.6  T
   5    -40.0513016 -0.315038E-08  0.419E-04    1.79      52.0  T
     SCC iter.                  ...        0 min,  0.005 sec
     gradient                   ...        0 min,  0.004 sec
 * total energy  :   -39.5306349 Eh     change       -0.2067905E-05 Eh
   gradient norm :     0.0005371 Eh/α   predicted    -0.1226233E-05 ( -40.70%)
   displ. norm   :     0.0033431 α      lambda       -0.4072501E-06
   maximum displ.:     0.0016740 α      in ANC's #2, #3, #10, ...

........................................................................
.............................. CYCLE    7 ..............................
........................................................................
   1    -40.0513237 -0.400513E+02  0.307E-03    1.79       0.0  T
   2    -40.0513237 -0.275679E-07  0.183E-03    1.79      11.9  T
   3    -40.0513237 -0.238386E-08  0.104E-03    1.79      21.0  T
   4    -40.0513237 -0.527798E-08  0.398E-04    1.79      54.9  T
   5    -40.0513237 -0.238328E-08  0.115E-04    1.79     190.5  T
     SCC iter.                  ...        0 min,  0.005 sec
     gradient                   ...        0 min,  0.005 sec
 * total energy  :   -39.5306352 Eh     change       -0.3055388E-06 Eh
   gradient norm :     0.0001355 Eh/α   predicted    -0.2084077E-06 ( -31.79%)
   displ. norm   :     0.0017375 α      lambda       -0.2545539E-07
   maximum displ.:     0.0010115 α      in ANC's #2, #5, #3, ...

........................................................................
.............................. CYCLE    8 ..............................
........................................................................
   1    -40.0513047 -0.400513E+02  0.118E-03    1.79       0.0  T
   2    -40.0513047 -0.298712E-09  0.706E-04    1.79      30.9  T
   3    -40.0513047  0.985104E-09  0.203E-04    1.79     107.3  T
     SCC iter.                  ...        0 min,  0.004 sec
     gradient                   ...        0 min,  0.005 sec
 * total energy  :   -39.5306352 Eh     change       -0.3120203E-07 Eh
   gradient norm :     0.0000805 Eh/α   predicted    -0.2017570E-07 ( -35.34%)
   displ. norm   :     0.0018915 α      lambda       -0.1359516E-07
   maximum displ.:     0.0012516 α      in ANC's #3, #2, #6, ...

   *** GEOMETRY OPTIMIZATION CONVERGED AFTER 8 ITERATIONS ***

------------------------------------------------------------------------
 total energy gain   :        -0.0078722 Eh       -4.9399 kcal/mol
 total RMSD          :         0.0876615 a0        0.0464 Å
 total power (kW/mol):        -2.5835567 (step) -181.8520 (real)
------------------------------------------------------------------------

 ANCopt (total)                0 d,  0 h,  0 min,  0.114 sec
 optimizer setup                ...        0 min,  0.000 sec (  0.206%)
 model hessian                  ...        0 min,  0.003 sec (  3.065%)
 ANC generation                 ...        0 min,  0.001 sec (  0.578%)
 coordinate transformation      ...        0 min,  0.000 sec (  0.096%)
 single point calculation       ...        0 min,  0.104 sec ( 91.661%)
 optimization log               ...        0 min,  0.003 sec (  2.848%)
 hessian update                 ...        0 min,  0.000 sec (  0.113%)
 rational function              ...        0 min,  0.001 sec (  0.573%)

================
 final structure:
================
21
 xtb: 6.5.1 (fef0646)
B           -0.00019437583225       -1.16316739355963       -0.00176466041749
N            1.24631725164681       -0.24138805849423       -0.00080783267345
C            2.51739477533339       -0.61997176132243       -0.00075140337776
C            3.35689094927452        0.50356665438456       -0.00082246625734
C            2.54079373059925        1.61117059666300       -0.00120562482099
C            1.20575157674696        1.13778760226353       -0.00108087155394
C            0.00058911568866        1.82086825837058       -0.00124861634612
C           -1.20493021235489        1.13842232496486       -0.00080649652061
N           -1.24621945325567       -0.24073087404503       -0.00010064286439
C           -2.51749640395899       -0.61864315229661        0.00071302235781
C           -3.35639906343006        0.50533841214423        0.00057932193959
C           -2.53972124748802        1.61251062336190       -0.00048409441898
F           -0.00007497888277       -1.95161629895753        1.12633462988970
F           -0.00072588381522       -1.94780131847676       -1.13265938071381
H            2.78162898425872       -1.66019437319538       -0.00056421851775
H            4.42858745196628        0.48215630454488       -0.00072457564702
H            2.83148118049264        2.64333386128906       -0.00135193565684
H            0.00087029015745        2.90047753858275       -0.00170385373193
H           -2.78227557332534       -1.65872624312978        0.00143771204265
H           -4.42810657767131        0.48449521810039        0.00115450061887
H           -2.82986760835016        2.64482665500762       -0.00091044163019

 Bond Distances (Angstroems)
 ---------------------------
B1-N2=1.5503         B1-N9=1.5503         B1-F13=1.3763        B1-F14=1.3764        N2-B1=1.5503         N2-C3=1.3263         
N2-C6=1.3798         C3-N2=1.3263         C3-C4=1.4025         C3-H15=1.0733        C4-C3=1.4025         C4-C5=1.3758         
C4-H16=1.0719        C5-C4=1.3758         C5-C6=1.4165         C5-H17=1.0723        C6-N2=1.3798         C6-C5=1.4165         
C6-C7=1.3853         C7-C6=1.3853         C7-C8=1.3853         C7-H18=1.0796        C8-C7=1.3853         C8-N9=1.3798         
C8-C12=1.4165        N9-B1=1.5503         N9-C8=1.3798         N9-C10=1.3263        C10-N9=1.3263        C10-C11=1.4025       
C10-H19=1.0733       C11-C10=1.4025       C11-C12=1.3758       C11-H20=1.0719       C12-C8=1.4165        C12-C11=1.3758       
C12-H21=1.0723       F13-B1=1.3763        F14-B1=1.3764        H15-C3=1.0733        H16-C4=1.0719        H17-C5=1.0723        
H18-C7=1.0796        H19-C10=1.0733       H20-C11=1.0719       H21-C12=1.0723       
 C  H  Rav=1.0735 sigma=0.0025  Rmin=1.0719  Rmax=1.0796     7
 C  C  Rav=1.3950 sigma=0.0157  Rmin=1.3758  Rmax=1.4165     8
 N  B  Rav=1.5503 sigma=0.0000  Rmin=1.5503  Rmax=1.5503     2
 N  C  Rav=1.3530 sigma=0.0268  Rmin=1.3263  Rmax=1.3798     4
 F  B  Rav=1.3764 sigma=0.0001  Rmin=1.3763  Rmax=1.3764     2

 selected bond angles (degree)
 --------------------
N9-B1-N2=107.00                F13-B1-N2=109.88               F13-B1-N9=109.88               F14-B1-N2=109.86               
F14-B1-N9=109.86               F14-B1-F13=110.30              C3-N2-B1=126.93                C6-N2-B1=124.80                
C6-N2-C3=108.27                C4-C3-N2=110.18                H15-C3-N2=120.84               H15-C3-C4=128.98               
C5-C4-C3=106.85                H16-C4-C3=125.62               H16-C4-C5=127.53               C6-C5-C4=106.86                
H17-C5-C4=127.89               H17-C5-C6=125.25               C5-C6-N2=107.84                C7-C6-N2=121.23                
C7-C6-C5=130.93                C8-C7-C6=120.94                H18-C7-C6=119.53               H18-C7-C8=119.53               
N9-C8-C7=121.23                C12-C8-C7=130.93               C12-C8-N9=107.84               C8-N9-B1=124.80                
C10-N9-B1=126.93               C10-N9-C8=108.27               C11-C10-N9=110.18              H19-C10-N9=120.84              
H19-C10-C11=128.98             

 selected dihedral angles (degree)
 ---------------------------------
C3-N2-B1-N9=179.95            C3-N2-B1-F13= 60.69           C3-N2-B1-F14=299.17           C6-N2-B1-N9=359.89            
C6-N2-B1-F13=240.63           C6-N2-B1-F14=119.11           C4-C3-N2-B1=179.95            C4-C3-N2-C6=  0.00            
H15-C3-N2-B1=359.95           H15-C3-N2-C6=180.00           C5-C4-C3-N2=  0.00            C5-C4-C3-H15=179.99           
H16-C4-C3-N2=180.00           H16-C4-C3-H15=  0.00          C6-C5-C4-C3=  0.00            C6-C5-C4-H16=180.00           
H17-C5-C4-C3=180.00           H17-C5-C4-H16=  0.00          C5-C6-N2-B1=180.05            C5-C6-N2-C3=  0.00            
C7-C6-N2-B1=  0.05            C7-C6-N2-C3=180.00            N2-C6-C5-C4=  0.00            N2-C6-C5-H17=180.00           
C7-C6-C5-C4=180.00            C7-C6-C5-H17=  0.00           C8-C7-C6-N2=  0.00            C8-C7-C6-C5=180.01            
H18-C7-C6-N2=180.01           H18-C7-C6-C5=  0.00           N9-C8-C7-C6=  0.00            N9-C8-C7-H18=180.01           
C12-C8-C7-C6=179.98           C12-C8-C7-H18=  0.00          C8-N9-B1-N2=  0.13            C8-N9-B1-F13=119.39           
C8-N9-B1-F14=240.91           C10-N9-B1-N2=180.05           C10-N9-B1-F13=299.31          C10-N9-B1-F14= 60.83          
B1-N9-C8-C7=359.91            B1-N9-C8-C12=179.93           C10-N9-C8-C7=179.98           C10-N9-C8-C12=  0.00          
C11-C10-N9-B1=180.07          C11-C10-N9-C8=  0.00          H19-C10-N9-B1=  0.07          H19-C10-N9-C8=180.00          
           -------------------------------------------------
          |                Final Singlepoint                |
           -------------------------------------------------

          ...................................................
          :                      SETUP                      :
          :.................................................:
          :  # basis functions                  63          :
          :  # atomic orbitals                  63          :
          :  # shells                           35          :
          :  # electrons                        70          :
          :  max. iterations                   250          :
          :  Hamiltonian                  GFN2-xTB          :
          :  restarted?                      false          :
          :  GBSA solvation                  false          :
          :  PC potential                    false          :
          :  electronic temp.          300.0000000     K    :
          :  accuracy                    1.0000000          :
          :  -> integral cutoff          0.2500000E+02      :
          :  -> integral neglect         0.1000000E-07      :
          :  -> SCF convergence          0.1000000E-05 Eh   :
          :  -> wf. convergence          0.1000000E-03 e    :
          :  Broyden damping             0.4000000          :
          ...................................................

 iter      E             dE          RMSdq      gap      omega  full diag
   1    -40.0513047 -0.400513E+02  0.605E-05    1.79       0.0  T
   2    -40.0513047  0.180975E-10  0.559E-05    1.79     390.3  T
   3    -40.0513047 -0.748770E-10  0.166E-05    1.79    1314.9  T

   *** convergence criteria satisfied after 3 iterations ***

         #    Occupation            Energy/Eh            Energy/eV
      -------------------------------------------------------------
         1        2.0000           -0.7666410             -20.8614
       ...           ...                  ...                  ...
        29        2.0000           -0.4548601             -12.3774
        30        2.0000           -0.4459873             -12.1359
        31        2.0000           -0.4437262             -12.0744
        32        2.0000           -0.4336693             -11.8007
        33        2.0000           -0.4263868             -11.6026
        34        2.0000           -0.4261749             -11.5968
        35        2.0000           -0.3983596             -10.8399 (HOMO)
        36                         -0.3325514              -9.0492 (LUMO)
        37                         -0.2169161              -5.9026
        38                         -0.1937080              -5.2711
        39                         -0.1792347              -4.8772
        40                         -0.1358539              -3.6968
       ...                                ...                  ...
        63                          0.6889979              18.7486
      -------------------------------------------------------------
                  HL-Gap            0.0658081 Eh            1.7907 eV
             Fermi-level           -0.3654555 Eh           -9.9446 eV

 SCC (total)                   0 d,  0 h,  0 min,  0.011 sec
 SCC setup                      ...        0 min,  0.000 sec (  0.908%)
 Dispersion                     ...        0 min,  0.000 sec (  0.802%)
 classical contributions        ...        0 min,  0.000 sec (  0.338%)
 integral evaluation            ...        0 min,  0.002 sec ( 17.123%)
 iterations                     ...        0 min,  0.004 sec ( 35.486%)
 molecular gradient             ...        0 min,  0.005 sec ( 44.045%)
 printout                       ...        0 min,  0.000 sec (  1.077%)

         :::::::::::::::::::::::::::::::::::::::::::::::::::::
         ::                     SUMMARY                     ::
         :::::::::::::::::::::::::::::::::::::::::::::::::::::
         :: total energy             -39.530635226623 Eh    ::
         :: gradient norm              0.000079848091 Eh/a0 ::
         :: HOMO-LUMO gap              1.790730325559 eV    ::
         ::.................................................::
         :: SCC energy               -40.051304659716 Eh    ::
         :: -> isotropic ES            0.083950488287 Eh    ::
         :: -> anisotropic ES         -0.002748585045 Eh    ::
         :: -> anisotropic XC          0.011218459856 Eh    ::
         :: -> dispersion             -0.021117091825 Eh    ::
         :: repulsion energy           0.520631039865 Eh    ::
         :: add. restraining           0.000000000000 Eh    ::
         :: total charge              -0.000000000000 e     ::
         :::::::::::::::::::::::::::::::::::::::::::::::::::::

           -------------------------------------------------
          |                Property Printout                |
           -------------------------------------------------

    * Orbital Energies and Occupations

         #    Occupation            Energy/Eh            Energy/eV
      -------------------------------------------------------------
         1        2.0000           -0.7666410             -20.8614
       ...           ...                  ...                  ...
        23        2.0000           -0.4915245             -13.3751
        24        2.0000           -0.4822017             -13.1214
        25        2.0000           -0.4771563             -12.9841
        26        2.0000           -0.4754816             -12.9385
        27        2.0000           -0.4686618             -12.7529
        28        2.0000           -0.4596344             -12.5073
        29        2.0000           -0.4548601             -12.3774
        30        2.0000           -0.4459873             -12.1359
        31        2.0000           -0.4437262             -12.0744
        32        2.0000           -0.4336693             -11.8007
        33        2.0000           -0.4263868             -11.6026
        34        2.0000           -0.4261749             -11.5968
        35        2.0000           -0.3983596             -10.8399 (HOMO)
        36                         -0.3325514              -9.0492 (LUMO)
        37                         -0.2169161              -5.9026
        38                         -0.1937080              -5.2711
        39                         -0.1792347              -4.8772
        40                         -0.1358539              -3.6968
        41                          0.0411944               1.1210
        42                          0.0442528               1.2042
        43                          0.0825871               2.2473
        44                          0.0957858               2.6065
        45                          0.1149788               3.1287
        46                          0.1327646               3.6127
       ...                                ...                  ...
        63                          0.6889979              18.7486
      -------------------------------------------------------------
                  HL-Gap            0.0658081 Eh            1.7907 eV
             Fermi-level           -0.3654555 Eh           -9.9446 eV

     #   Z          covCN         q      C6AA      α(0)
     1   5 B        3.111     0.522    14.272     6.301
     2   7 N        2.748    -0.092    23.041     7.129
     3   6 C        3.076     0.044    26.927     8.508
     4   6 C        3.035    -0.051    29.232     8.868
     5   6 C        3.036    -0.043    29.021     8.836
     6   6 C        3.132     0.049    26.703     8.459
     7   6 C        2.900    -0.018    28.451     8.746
     8   6 C        3.132     0.049    26.703     8.459
     9   7 N        2.748    -0.092    23.041     7.129
    10   6 C        3.076     0.044    26.927     8.508
    11   6 C        3.035    -0.051    29.232     8.868
    12   6 C        3.036    -0.043    29.021     8.836
    13   9 F        0.722    -0.369    13.147     4.282
    14   9 F        0.722    -0.369    13.147     4.282
    15   1 H        0.926     0.072     2.058     2.244
    16   1 H        0.926     0.051     2.313     2.378
    17   1 H        0.926     0.050     2.316     2.380
    18   1 H        0.926     0.073     2.050     2.239
    19   1 H        0.926     0.072     2.058     2.244
    20   1 H        0.926     0.051     2.313     2.378
    21   1 H        0.926     0.050     2.316     2.380

 Mol. C6AA /au·bohr⁶  :       6139.257493
 Mol. C8AA /au·bohr⁸  :     152046.156565
 Mol. α(0) /au        :        123.452741


Wiberg/Mayer (AO) data.
largest (>0.10) Wiberg bond orders for each atom

 ---------------------------------------------------------------------------
     #   Z sym  total        # sym  WBO       # sym  WBO       # sym  WBO
 ---------------------------------------------------------------------------
     1   5 B    3.388 --    13 F    0.874    14 F    0.874     2 N    0.794
                             9 N    0.794
     2   7 N    3.615 --     3 C    1.416     6 C    1.150     1 B    0.794
     3   6 C    3.930 --     2 N    1.416     4 C    1.329    15 H    0.966
     4   6 C    3.961 --     5 C    1.535     3 C    1.329    16 H    0.973
     5   6 C    3.954 --     4 C    1.535     6 C    1.248    17 H    0.972
     6   6 C    3.964 --     7 C    1.372     5 C    1.248     2 N    1.150
     7   6 C    3.986 --     8 C    1.372     6 C    1.372    18 H    0.962
     8   6 C    3.964 --     7 C    1.372    12 C    1.248     9 N    1.150
     9   7 N    3.615 --    10 C    1.416     8 C    1.150     1 B    0.794
    10   6 C    3.930 --     9 N    1.416    11 C    1.329    19 H    0.966
    11   6 C    3.961 --    12 C    1.535    10 C    1.329    20 H    0.973
    12   6 C    3.954 --    11 C    1.535     8 C    1.248    21 H    0.972
    13   9 F    0.974 --     1 B    0.874
    14   9 F    0.973 --     1 B    0.874
    15   1 H    0.994 --     3 C    0.966
    16   1 H    0.997 --     4 C    0.973
    17   1 H    0.997 --     5 C    0.972
    18   1 H    0.994 --     7 C    0.962
    19   1 H    0.994 --    10 C    0.966
    20   1 H    0.997 --    11 C    0.973
    21   1 H    0.997 --    12 C    0.972
 ---------------------------------------------------------------------------

Topologies differ in total number of bonds
Writing topology from bond orders to xtbtopo.mol

molecular dipole:
                 x           y           z       tot (Debye)
 q only:        0.000       1.887       0.003
   full:        0.001       1.976       0.003       5.023
molecular quadrupole (traceless):
                xx          xy          yy          xz          yz          zz
 q only:       11.979      -0.004      -4.844      -0.005      -0.015      -7.135
  q+dip:       14.799      -0.004      -2.494      -0.007      -0.017     -12.306
   full:       12.857      -0.004      -4.427      -0.006      -0.015      -8.430

           -------------------------------------------------
          |                Geometry Summary                 |
           -------------------------------------------------

      molecular mass/u    :      191.9734491
   center of mass at/Å    :        0.0001089      -0.0122892      -0.0011251
  moments of inertia/u·Å² :        0.3864075E+03   0.7760677E+03   0.1065525E+04
rotational constants/cm⁻¹ :        0.4362656E-01   0.2172186E-01   0.1582097E-01

 * 23 selected distances

     #   Z          #   Z                                           value/Å
     1   5 B        2   7 N                                       1.5503128
     2   7 N        3   6 C                                       1.3262594
     3   6 C        4   6 C                                       1.4025308
     4   6 C        5   6 C                                       1.3757913
     2   7 N        6   6 C                                       1.3797723
     5   6 C        6   6 C                                       1.4164849
     6   6 C        7   6 C                                       1.3852856
     7   6 C        8   6 C                                       1.3852833
     1   5 B        9   7 N                                       1.5503131 (max)
     8   6 C        9   7 N                                       1.3797714
     9   7 N       10   6 C                                       1.3262593
    10   6 C       11   6 C                                       1.4025308
     8   6 C       12   6 C                                       1.4164841
    11   6 C       12   6 C                                       1.3757887
     1   5 B       13   9 F                                       1.3763212
     1   5 B       14   9 F                                       1.3764352
     3   6 C       15   1 H                                       1.0732581
     4   6 C       16   1 H                                       1.0719105
     5   6 C       17   1 H                                       1.0723155
     7   6 C       18   1 H                                       1.0796095
    10   6 C       19   1 H                                       1.0732575
    11   6 C       20   1 H                                       1.0719104 (min)
    12   6 C       21   1 H                                       1.0723160

 * 5 distinct bonds (by element types)

   Z      Z             #   av. dist./Å        max./Å        min./Å
   1 H    6 C           7     1.0735111     1.0796095     1.0719104
   6 C    6 C           8     1.3950224     1.4164849     1.3757887
   5 B    7 N           2     1.5503130     1.5503131     1.5503128
   6 C    7 N           4     1.3530156     1.3797723     1.3262593
   5 B    9 F           2     1.3763782     1.3764352     1.3763212


optimized geometry written to: xtbopt.xyz


           -------------------------------------------------
          | TOTAL ENERGY              -39.530635226623 Eh   |
          | GRADIENT NORM               0.000079848091 Eh/α |
          | HOMO-LUMO GAP               1.790730325559 eV   |
           -------------------------------------------------

------------------------------------------------------------------------
 * finished run on 2024/06/26 at 21:13:50.876     
------------------------------------------------------------------------
 total:
 * wall-time:     0 d,  0 h,  0 min,  0.159 sec
 *  cpu-time:     0 d,  0 h,  0 min,  0.775 sec
 * ratio c/w:     4.886 speedup
 SCF:
 * wall-time:     0 d,  0 h,  0 min,  0.019 sec
 *  cpu-time:     0 d,  0 h,  0 min,  0.095 sec
 * ratio c/w:     5.109 speedup
 ANC optimizer:
 * wall-time:     0 d,  0 h,  0 min,  0.127 sec
 *  cpu-time:     0 d,  0 h,  0 min,  0.635 sec
 * ratio c/w:     5.001 speedup

