      -----------------------------------------------------------      
     |                   =====================                   |     
     |                           x T B                           |     
     |                   =====================                   |     
     |                         S. Grimme                         |     
     |          Mulliken Center for Theoretical Chemistry        |     
     |                    University of Bonn                     |     
      -----------------------------------------------------------      

   * xtb version 6.6.1 (8d0f1dd) compiled by 'conda@1efc2f54142f' on 2023-08-01

   xtb is free software: you can redistribute it and/or modify it under
   the terms of the GNU Lesser General Public License as published by
   the Free Software Foundation, either version 3 of the License, or
   (at your option) any later version.
   
   xtb is distributed in the hope that it will be useful,
   but WITHOUT ANY WARRANTY; without even the implied warranty of
   MERCHANTABILITY or FITNESS FOR A PARTICULAR PURPOSE.  See the
   GNU Lesser General Public License for more details.
   
   Cite this work as:
   * C. Bannwarth, E. Caldeweyher, S. Ehlert, A. Hansen, P. Pracht,
     J. Seibert, S. Spicher, S. Grimme, WIREs Comput. Mol. Sci., 2020, 11,
     e01493. DOI: 10.1002/wcms.1493
   
   for GFN2-xTB:
   * C. Bannwarth, S. Ehlert and S. Grimme., J. Chem. Theory Comput., 2019,
     15, 1652-1671. DOI: 10.1021/acs.jctc.8b01176
   for GFN1-xTB:
   * S. Grimme, C. Bannwarth, P. Shushkov, J. Chem. Theory Comput., 2017,
     13, 1989-2009. DOI: 10.1021/acs.jctc.7b00118
   for GFN0-xTB:
   * P. Pracht, E. Caldeweyher, S. Ehlert, S. Grimme, ChemRxiv, 2019, preprint.
     DOI: 10.26434/chemrxiv.8326202.v1
   for GFN-FF:
   * S. Spicher and S. Grimme, Angew. Chem. Int. Ed., 2020, 59, 15665-15673.
     DOI: 10.1002/anie.202004239
   
   for ALPB and GBSA implicit solvation:
   * S. Ehlert, M. Stahn, S. Spicher, S. Grimme, J. Chem. Theory Comput.,
     2021, 17, 4250-4261. DOI: 10.1021/acs.jctc.1c00471
   
   for DFT-D4:
   * E. Caldeweyher, C. Bannwarth and S. Grimme, J. Chem. Phys., 2017,
     147, 034112. DOI: 10.1063/1.4993215
   * E. Caldeweyher, S. Ehlert, A. Hansen, H. Neugebauer, S. Spicher,
     C. Bannwarth and S. Grimme, J. Chem. Phys., 2019, 150, 154122.
     DOI: 10.1063/1.5090222
   * E. Caldeweyher, J.-M. Mewes, S. Ehlert and S. Grimme, Phys. Chem. Chem. Phys.
     2020, 22, 8499-8512. DOI: 10.1039/D0CP00502A
   
   for sTDA-xTB:
   * S. Grimme and C. Bannwarth, J. Chem. Phys., 2016, 145, 054103.
     DOI: 10.1063/1.4959605
   
   in the mass-spec context:
   * V. Asgeirsson, C. Bauer and S. Grimme, Chem. Sci., 2017, 8, 4879.
     DOI: 10.1039/c7sc00601b
   * J. Koopman and S. Grimme, ACS Omega 2019, 4, 12, 15120-15133.
     DOI: 10.1021/acsomega.9b02011
   
   for metadynamics refer to:
   * S. Grimme, J. Chem. Theory Comput., 2019, 155, 2847-2862
     DOI: 10.1021/acs.jctc.9b00143
   
   for SPH calculations refer to:
   * S. Spicher and S. Grimme, J. Chem. Theory Comput., 2021, 17, 1701-1714
     DOI: 10.1021/acs.jctc.0c01306
   
   with help from (in alphabetical order)
   P. Atkinson, C. Bannwarth, F. Bohle, G. Brandenburg, E. Caldeweyher
   M. Checinski, S. Dohm, S. Ehlert, S. Ehrlich, I. Gerasimov, C. Hölzer
   A. Katbashev, J. Koopman, C. Lavigne, S. Lehtola, F. März, M. Müller,
   F. Musil, H. Neugebauer, J. Pisarek, C. Plett, P. Pracht, F. Pultar,
   J. Seibert, P. Shushkov, S. Spicher, M. Stahn, M. Steiner, T. Strunk,
   J. Stückrath, T. Rose, and J. Unsleber
   
 * started run on 2024/02/25 at 19:18:26.575     

           -------------------------------------------------
          |                Calculation Setup                |
           -------------------------------------------------

          program call               : xtb crest_best.xyz --gfn2 --opt vtight --parallel 1
          coordinate file            : crest_best.xyz
          omp threads                :                     4

   ID    Z sym.   atoms
    1    5 B      1
    2    7 N      2, 9
    3    6 C      3-8, 10-12
    4    9 F      13, 14
    5    1 H      15-21

           -------------------------------------------------
          |                 G F N 2 - x T B                 |
           -------------------------------------------------

        Reference                      10.1021/acs.jctc.8b01176
      * Hamiltonian:
        H0-scaling (s, p, d)           1.850000    2.230000    2.230000
        zeta-weighting                 0.500000
      * Dispersion:
        s8                             2.700000
        a1                             0.520000
        a2                             5.000000
        s9                             5.000000
      * Repulsion:
        kExp                           1.500000    1.000000
        rExp                           1.000000
      * Coulomb:
        alpha                          2.000000
        third order                    shell-resolved
        anisotropic                    true
        a3                             3.000000
        a5                             4.000000
        cn-shift                       1.200000
        cn-exp                         4.000000
        max-rad                        5.000000


          ...................................................
          :                      SETUP                      :
          :.................................................:
          :  # basis functions                  63          :
          :  # atomic orbitals                  63          :
          :  # shells                           35          :
          :  # electrons                        70          :
          :  max. iterations                   250          :
          :  Hamiltonian                  GFN2-xTB          :
          :  restarted?                      false          :
          :  GBSA solvation                  false          :
          :  PC potential                    false          :
          :  electronic temp.          300.0000000     K    :
          :  accuracy                    1.0000000          :
          :  -> integral cutoff          0.2500000E+02      :
          :  -> integral neglect         0.1000000E-07      :
          :  -> SCF convergence          0.1000000E-05 Eh   :
          :  -> wf. convergence          0.1000000E-03 e    :
          :  Broyden damping             0.4000000          :
          ...................................................

 iter      E             dE          RMSdq      gap      omega  full diag
   1    -39.8646610 -0.398647E+02  0.570E+00    1.93       0.0  T
   2    -39.9987949 -0.134134E+00  0.387E+00    1.68       1.0  T
   3    -39.9912830  0.751189E-02  0.165E+00    1.91       1.0  T
   4    -40.0180927 -0.268097E-01  0.686E-01    1.70       1.0  T
   5    -40.0255122 -0.741947E-02  0.252E-01    1.77       1.0  T
   6    -40.0258786 -0.366403E-03  0.122E-01    1.74       1.0  T
   7    -40.0260132 -0.134560E-03  0.600E-02    1.76       1.0  T
   8    -40.0260596 -0.463957E-04  0.137E-02    1.76       1.6  T
   9    -40.0260616 -0.199143E-05  0.526E-03    1.76       4.1  T
  10    -40.0260616 -0.719648E-07  0.232E-03    1.76       9.4  T
  11    -40.0260616 -0.859032E-08  0.127E-03    1.76      17.1  T
  12    -40.0260617 -0.381290E-07  0.405E-04    1.76      53.9  T
  13    -40.0260617 -0.272287E-08  0.180E-04    1.76     121.4  T

   *** convergence criteria satisfied after 13 iterations ***

         #    Occupation            Energy/Eh            Energy/eV
      -------------------------------------------------------------
         1        2.0000           -0.7605642             -20.6960
       ...           ...                  ...                  ...
        29        2.0000           -0.4505842             -12.2610
        30        2.0000           -0.4426419             -12.0449
        31        2.0000           -0.4381972             -11.9240
        32        2.0000           -0.4284462             -11.6586
        33        2.0000           -0.4225993             -11.4995
        34        2.0000           -0.4222144             -11.4890
        35        2.0000           -0.3999643             -10.8836 (HOMO)
        36                         -0.3354096              -9.1270 (LUMO)
        37                         -0.2210282              -6.0145
        38                         -0.1959066              -5.3309
        39                         -0.1804255              -4.9096
        40                         -0.1384960              -3.7687
       ...                                ...                  ...
        63                          0.6756930              18.3865
      -------------------------------------------------------------
                  HL-Gap            0.0645547 Eh            1.7566 eV
             Fermi-level           -0.3676869 Eh          -10.0053 eV

 SCC (total)                   0 d,  0 h,  0 min,  0.017 sec
 SCC setup                      ...        0 min,  0.000 sec (  1.392%)
 Dispersion                     ...        0 min,  0.000 sec (  1.373%)
 classical contributions        ...        0 min,  0.000 sec (  1.734%)
 integral evaluation            ...        0 min,  0.001 sec (  7.543%)
 iterations                     ...        0 min,  0.012 sec ( 70.680%)
 molecular gradient             ...        0 min,  0.003 sec ( 16.211%)
 printout                       ...        0 min,  0.000 sec (  0.920%)

         :::::::::::::::::::::::::::::::::::::::::::::::::::::
         ::                     SUMMARY                     ::
         :::::::::::::::::::::::::::::::::::::::::::::::::::::
         :: total energy             -39.522764372698 Eh    ::
         :: gradient norm              0.066764356716 Eh/a0 ::
         :: HOMO-LUMO gap              1.756622869431 eV    ::
         ::.................................................::
         :: SCC energy               -40.026061676399 Eh    ::
         :: -> isotropic ES            0.086819529086 Eh    ::
         :: -> anisotropic ES         -0.003634784418 Eh    ::
         :: -> anisotropic XC          0.012915595742 Eh    ::
         :: -> dispersion             -0.021149127107 Eh    ::
         :: repulsion energy           0.503256698161 Eh    ::
         :: add. restraining           0.000000000000 Eh    ::
         :: total charge              -0.000000000000 e     ::
         :::::::::::::::::::::::::::::::::::::::::::::::::::::

      ----------------------------------------------------------- 
     |                   =====================                   |
     |                        A N C O P T                        |
     |                   =====================                   |
     |               Approximate Normal Coordinate               |
     |                Rational Function Optimizer                |
      ----------------------------------------------------------- 

          ...................................................
          :                      SETUP                      :
          :.................................................:
          :   optimization level         verytight          :
          :   max. optcycles                   420          :
          :   ANC micro-cycles                  20          :
          :   degrees of freedom                57          :
          :.................................................:
          :   RF solver                   davidson          :
          :   write xtbopt.log                true          :
          :   linear?                        false          :
          :   energy convergence         0.1000000E-06 Eh   :
          :   grad. convergence          0.2000000E-03 Eh/α :
          :   maxmium RF displ.          1.0000000          :
          :   Hlow (freq-cutoff)         0.1000000E-01      :
          :   Hmax (freq-cutoff)         5.0000000          :
          :   S6 in model hess.         20.0000000          :
          ...................................................

generating ANC from model Hessian ...
Using Lindh-Hessian (1995)
 Shifting diagonal of input Hessian by    6.4069464852409847E-003
 Lowest  eigenvalues of input Hessian
    0.000000    0.000000    0.000000    0.000000    0.000000    0.000000
    0.010000    0.011440    0.016515    0.021246    0.022797    0.026476
    0.027534    0.033019    0.045679    0.050069    0.059247    0.065453
 Highest eigenvalues
    1.869204    1.901647    1.910161    1.947558    2.035922    2.157161


........................................................................
.............................. CYCLE    1 ..............................
........................................................................

 iter      E             dE          RMSdq      gap      omega  full diag
   1    -40.0260617 -0.400261E+02  0.355E-05    1.76       0.0  T
   2    -40.0260617 -0.778755E-11  0.216E-05    1.76    1008.6  T
   3    -40.0260617 -0.375167E-11  0.128E-05    1.76    1704.6  T
     SCC iter.                  ...        0 min,  0.004 sec
     gradient                   ...        0 min,  0.003 sec
 * total energy  :   -39.5227644 Eh     change       -0.5334542E-09 Eh
   gradient norm :     0.0667639 Eh/α   predicted     0.0000000E+00 (-100.00%)
   displ. norm   :     0.2330632 α      lambda       -0.1055005E-01
   maximum displ.:     0.1131688 α      in ANC's #23, #27, #24, ...

........................................................................
.............................. CYCLE    2 ..............................
........................................................................

 iter      E             dE          RMSdq      gap      omega  full diag
   1    -40.0447863 -0.400448E+02  0.353E-01    1.77       0.0  T
   2    -40.0448904 -0.104125E-03  0.208E-01    1.78       1.0  T
   3    -40.0448365  0.539179E-04  0.761E-02    1.77       1.0  T
   4    -40.0449137 -0.772667E-04  0.210E-02    1.78       1.0  T
   5    -40.0449207 -0.690889E-05  0.637E-03    1.78       3.4  T
   6    -40.0449207 -0.175477E-08  0.378E-03    1.78       5.8  T
   7    -40.0449209 -0.198303E-06  0.874E-04    1.78      25.0  T
   8    -40.0449209 -0.894008E-08  0.380E-04    1.78      57.4  T
     SCC iter.                  ...        0 min,  0.007 sec
     gradient                   ...        0 min,  0.003 sec
 * total energy  :   -39.5296362 Eh     change       -0.6871857E-02 Eh
   gradient norm :     0.0224092 Eh/α   predicted    -0.5561720E-02 ( -19.07%)
   displ. norm   :     0.1265450 α      lambda       -0.1645218E-02
   maximum displ.:     0.0761897 α      in ANC's #6, #23, #24, ...

........................................................................
.............................. CYCLE    3 ..............................
........................................................................

 iter      E             dE          RMSdq      gap      omega  full diag
   1    -40.0511654 -0.400512E+02  0.149E-01    1.79       0.0  T
   2    -40.0511817 -0.163042E-04  0.873E-02    1.79       1.0  T
   3    -40.0511735  0.821286E-05  0.301E-02    1.79       1.0  T
   4    -40.0511866 -0.130523E-04  0.621E-03    1.79       3.5  T
   5    -40.0511869 -0.330664E-06  0.302E-03    1.79       7.2  T
   6    -40.0511869 -0.268615E-07  0.109E-03    1.79      20.1  T
   7    -40.0511869 -0.129120E-07  0.467E-04    1.79      46.7  T
   8    -40.0511869 -0.165712E-08  0.240E-04    1.79      90.9  T
     SCC iter.                  ...        0 min,  0.009 sec
     gradient                   ...        0 min,  0.002 sec
 * total energy  :   -39.5305273 Eh     change       -0.8910857E-03 Eh
   gradient norm :     0.0066711 Eh/α   predicted    -0.8360021E-03 (  -6.18%)
   displ. norm   :     0.0406318 α      lambda       -0.1056806E-03
   maximum displ.:     0.0332449 α      in ANC's #6, #23, #10, ...

........................................................................
.............................. CYCLE    4 ..............................
........................................................................

 iter      E             dE          RMSdq      gap      omega  full diag
   1    -40.0513101 -0.400513E+02  0.256E-02    1.79       0.0  T
   2    -40.0513115 -0.134655E-05  0.164E-02    1.79       1.3  T
   3    -40.0513111  0.331831E-06  0.754E-03    1.79       2.9  T
   4    -40.0513115 -0.343251E-06  0.407E-03    1.79       5.4  T
   5    -40.0513117 -0.280264E-06  0.973E-04    1.79      22.4  T
   6    -40.0513117 -0.311879E-08  0.377E-04    1.79      57.8  T
     SCC iter.                  ...        0 min,  0.006 sec
     gradient                   ...        0 min,  0.003 sec
 * total energy  :   -39.5306041 Eh     change       -0.7678788E-04 Eh
   gradient norm :     0.0039955 Eh/α   predicted    -0.5294431E-04 ( -31.05%)
   displ. norm   :     0.0368956 α      lambda       -0.5351277E-04
   maximum displ.:     0.0306110 α      in ANC's #6, #10, #17, ...

........................................................................
.............................. CYCLE    5 ..............................
........................................................................

 iter      E             dE          RMSdq      gap      omega  full diag
   1    -40.0512329 -0.400512E+02  0.264E-02    1.79       0.0  T
   2    -40.0512346 -0.170213E-05  0.171E-02    1.79       1.3  T
   3    -40.0512345  0.120355E-06  0.802E-03    1.79       2.7  T
   4    -40.0512346 -0.161961E-06  0.416E-03    1.79       5.3  T
   5    -40.0512349 -0.256959E-06  0.121E-03    1.79      18.1  T
   6    -40.0512349 -0.898420E-08  0.546E-04    1.79      40.0  T
   7    -40.0512349 -0.569872E-08  0.212E-04    1.79     103.0  T
     SCC iter.                  ...        0 min,  0.006 sec
     gradient                   ...        0 min,  0.003 sec
 * total energy  :   -39.5306330 Eh     change       -0.2890561E-04 Eh
   gradient norm :     0.0015222 Eh/α   predicted    -0.2679636E-04 (  -7.30%)
   displ. norm   :     0.0063465 α      lambda       -0.2327907E-05
   maximum displ.:     0.0044319 α      in ANC's #6, #1, #15, ...

........................................................................
.............................. CYCLE    6 ..............................
........................................................................

 iter      E             dE          RMSdq      gap      omega  full diag
   1    -40.0513028 -0.400513E+02  0.665E-03    1.79       0.0  T
   2    -40.0513029 -0.919387E-07  0.371E-03    1.79       5.9  T
   3    -40.0513029  0.483035E-08  0.182E-03    1.79      12.0  T
   4    -40.0513029 -0.176338E-07  0.766E-04    1.79      28.5  T
   5    -40.0513029 -0.299192E-08  0.439E-04    1.79      49.7  T
     SCC iter.                  ...        0 min,  0.005 sec
     gradient                   ...        0 min,  0.012 sec
 * total energy  :   -39.5306350 Eh     change       -0.1952904E-05 Eh
   gradient norm :     0.0005271 Eh/α   predicted    -0.1167633E-05 ( -40.21%)
   displ. norm   :     0.0027347 α      lambda       -0.3635141E-06
   maximum displ.:     0.0015596 α      in ANC's #1, #10, #6, ...

........................................................................
.............................. CYCLE    7 ..............................
........................................................................

 iter      E             dE          RMSdq      gap      omega  full diag
   1    -40.0513220 -0.400513E+02  0.289E-03    1.79       0.0  T
   2    -40.0513220 -0.258453E-07  0.173E-03    1.79      12.6  T
   3    -40.0513220 -0.310113E-08  0.987E-04    1.79      22.1  T
   4    -40.0513220 -0.450527E-08  0.375E-04    1.79      58.2  T
     SCC iter.                  ...        0 min,  0.008 sec
     gradient                   ...        0 min,  0.003 sec
 * total energy  :   -39.5306352 Eh     change       -0.2597339E-06 Eh
   gradient norm :     0.0001323 Eh/α   predicted    -0.1868147E-06 ( -28.07%)
   displ. norm   :     0.0013077 α      lambda       -0.2634465E-07
   maximum displ.:     0.0007587 α      in ANC's #1, #3, #6, ...

........................................................................
.............................. CYCLE    8 ..............................
........................................................................

 iter      E             dE          RMSdq      gap      omega  full diag
   1    -40.0513029 -0.400513E+02  0.964E-04    1.79       0.0  T
   2    -40.0513029 -0.205418E-10  0.582E-04    1.79      37.5  T
   3    -40.0513029  0.405873E-08  0.413E-04    1.79      52.8  T
     SCC iter.                  ...        0 min,  0.004 sec
     gradient                   ...        0 min,  0.003 sec
 * total energy  :   -39.5306352 Eh     change       -0.1948555E-07 Eh
   gradient norm :     0.0000766 Eh/α   predicted    -0.1808657E-07 (  -7.18%)
   displ. norm   :     0.0010935 α      lambda       -0.6993560E-08
   maximum displ.:     0.0009089 α      in ANC's #1, #6, #5, ...

   *** GEOMETRY OPTIMIZATION CONVERGED AFTER 8 ITERATIONS ***

------------------------------------------------------------------------
 total energy gain   :        -0.0078709 Eh       -4.9390 kcal/mol
 total RMSD          :         0.0867692 a0        0.0459 Å
 total power (kW/mol):        -2.5831205 (step) -201.3776 (real)
------------------------------------------------------------------------

 ANCopt (total)                0 d,  0 h,  0 min,  0.103 sec
 optimizer setup                ...        0 min,  0.000 sec (  0.118%)
 model hessian                  ...        0 min,  0.003 sec (  3.346%)
 ANC generation                 ...        0 min,  0.000 sec (  0.410%)
 coordinate transformation      ...        0 min,  0.000 sec (  0.111%)
 single point calculation       ...        0 min,  0.093 sec ( 91.031%)
 optimization log               ...        0 min,  0.001 sec (  0.856%)
 hessian update                 ...        0 min,  0.000 sec (  0.142%)
 rational function              ...        0 min,  0.001 sec (  1.003%)

================
 final structure:
================
21
 xtb: 6.6.1 (8d0f1dd)
B            0.00000086896976       -1.16295660390517        0.00064448615290
N            1.24633884232971       -0.24096437845371        0.00067359497941
C            2.51748357580100       -0.61930944745787        0.00136037830955
C            3.35678778024359        0.50437572429341        0.00106157204315
C            2.54048835357920        1.61183147108712       -0.00003269911357
C            1.20553232792694        1.13820189776338       -0.00010855653924
C            0.00024435052162        1.82105025066916       -0.00044308179129
C           -1.20516279548865        1.13839629439915        0.00021057536142
N           -1.24618593305426       -0.24075870955669        0.00103760388482
C           -2.51739448092093       -0.61890486421887        0.00197942308228
C           -3.35651572817969        0.50491210370160        0.00181812643464
C           -2.54003654885069        1.61224097380912        0.00054302188708
F            0.00011494038371       -1.94981705279545        1.12993188635984
F           -0.00024163558212       -1.94924682891811       -1.12904465878341
H            2.78188967343832       -1.65948960141612        0.00209940408140
H            4.42848632285531        0.48315733078625        0.00157360309238
H            2.83100060311519        2.64404694287020       -0.00055328778990
H            0.00033111561667        2.90066208577195       -0.00120622030479
H           -2.78196291985651       -1.65904274558833        0.00280241712646
H           -4.42821724981527        0.48386882942008        0.00253621223524
H           -2.83038740373292        2.64450167733892        0.00006223449162

 Bond Distances (Angstroems)
 ---------------------------
B1-N2=1.5503         B1-N9=1.5503         B1-F13=1.3764        B1-F14=1.3764        N2-B1=1.5503         N2-C3=1.3263         
N2-C6=1.3798         C3-N2=1.3263         C3-C4=1.4025         C3-H15=1.0733        C4-C3=1.4025         C4-C5=1.3758         
C4-H16=1.0719        C5-C4=1.3758         C5-C6=1.4165         C5-H17=1.0723        C6-N2=1.3798         C6-C5=1.4165         
C6-C7=1.3853         C7-C6=1.3853         C7-C8=1.3853         C7-H18=1.0796        C8-C7=1.3853         C8-N9=1.3798         
C8-C12=1.4165        N9-B1=1.5503         N9-C8=1.3798         N9-C10=1.3263        C10-N9=1.3263        C10-C11=1.4025       
C10-H19=1.0733       C11-C10=1.4025       C11-C12=1.3758       C11-H20=1.0719       C12-C8=1.4165        C12-C11=1.3758       
C12-H21=1.0723       F13-B1=1.3764        F14-B1=1.3764        H15-C3=1.0733        H16-C4=1.0719        H17-C5=1.0723        
H18-C7=1.0796        H19-C10=1.0733       H20-C11=1.0719       H21-C12=1.0723       
 C  H  Rav=1.0735 sigma=0.0025  Rmin=1.0719  Rmax=1.0796     7
 C  C  Rav=1.3950 sigma=0.0157  Rmin=1.3758  Rmax=1.4165     8
 N  B  Rav=1.5503 sigma=0.0000  Rmin=1.5503  Rmax=1.5503     2
 N  C  Rav=1.3530 sigma=0.0268  Rmin=1.3263  Rmax=1.3798     4
 F  B  Rav=1.3764 sigma=0.0000  Rmin=1.3764  Rmax=1.3764     2

 selected bond angles (degree)
 --------------------
N9-B1-N2=107.01                F13-B1-N2=109.87               F13-B1-N9=109.87               F14-B1-N2=109.87               
F14-B1-N9=109.87               F14-B1-F13=110.29              C3-N2-B1=126.93                C6-N2-B1=124.80                
C6-N2-C3=108.27                C4-C3-N2=110.18                H15-C3-N2=120.84               H15-C3-C4=128.98               
C5-C4-C3=106.85                H16-C4-C3=125.62               H16-C4-C5=127.53               C6-C5-C4=106.86                
H17-C5-C4=127.89               H17-C5-C6=125.25               C5-C6-N2=107.84                C7-C6-N2=121.23                
C7-C6-C5=130.93                C8-C7-C6=120.94                H18-C7-C6=119.53               H18-C7-C8=119.53               
N9-C8-C7=121.23                C12-C8-C7=130.93               C12-C8-N9=107.84               C8-N9-B1=124.80                
C10-N9-B1=126.93               C10-N9-C8=108.27               C11-C10-N9=110.18              H19-C10-N9=120.84              
H19-C10-C11=128.98             

 selected dihedral angles (degree)
 ---------------------------------
C3-N2-B1-N9=179.95            C3-N2-B1-F13= 60.71           C3-N2-B1-F14=299.19           C6-N2-B1-N9=359.94            
C6-N2-B1-F13=240.70           C6-N2-B1-F14=119.18           C4-C3-N2-B1=180.00            C4-C3-N2-C6=  0.00            
H15-C3-N2-B1=  0.00           H15-C3-N2-C6=180.00           C5-C4-C3-N2=  0.00            C5-C4-C3-H15=180.00           
H16-C4-C3-N2=179.99           H16-C4-C3-H15=  0.00          C6-C5-C4-C3=  0.00            C6-C5-C4-H16=180.01           
H17-C5-C4-C3=180.00           H17-C5-C4-H16=  0.00          C5-C6-N2-B1=180.01            C5-C6-N2-C3=  0.00            
C7-C6-N2-B1=  0.03            C7-C6-N2-C3=180.02            N2-C6-C5-C4=  0.00            N2-C6-C5-H17=180.00           
C7-C6-C5-C4=179.97            C7-C6-C5-H17=  0.00           C8-C7-C6-N2=  0.00            C8-C7-C6-C5=180.03            
H18-C7-C6-N2=180.01           H18-C7-C6-C5=  0.03           N9-C8-C7-C6=  0.00            N9-C8-C7-H18=179.99           
C12-C8-C7-C6=179.97           C12-C8-C7-H18=359.97          C8-N9-B1-N2=  0.06            C8-N9-B1-F13=119.30           
C8-N9-B1-F14=240.82           C10-N9-B1-N2=180.05           C10-N9-B1-F13=299.29          C10-N9-B1-F14= 60.81          
B1-N9-C8-C7=359.97            B1-N9-C8-C12=179.98           C10-N9-C8-C7=179.98           C10-N9-C8-C12=  0.00          
C11-C10-N9-B1=180.01          C11-C10-N9-C8=  0.00          H19-C10-N9-B1=  0.00          H19-C10-N9-C8=180.00          
           -------------------------------------------------
          |                Final Singlepoint                |
           -------------------------------------------------

          ...................................................
          :                      SETUP                      :
          :.................................................:
          :  # basis functions                  63          :
          :  # atomic orbitals                  63          :
          :  # shells                           35          :
          :  # electrons                        70          :
          :  max. iterations                   250          :
          :  Hamiltonian                  GFN2-xTB          :
          :  restarted?                      false          :
          :  GBSA solvation                  false          :
          :  PC potential                    false          :
          :  electronic temp.          300.0000000     K    :
          :  accuracy                    1.0000000          :
          :  -> integral cutoff          0.2500000E+02      :
          :  -> integral neglect         0.1000000E-07      :
          :  -> SCF convergence          0.1000000E-05 Eh   :
          :  -> wf. convergence          0.1000000E-03 e    :
          :  Broyden damping             0.4000000          :
          ...................................................

 iter      E             dE          RMSdq      gap      omega  full diag
   1    -40.0513029 -0.400513E+02  0.442E-05    1.79       0.0  T
   2    -40.0513029 -0.197531E-11  0.354E-05    1.79     616.1  T
   3    -40.0513029 -0.251035E-10  0.149E-05    1.79    1468.8  T

   *** convergence criteria satisfied after 3 iterations ***

         #    Occupation            Energy/Eh            Energy/eV
      -------------------------------------------------------------
         1        2.0000           -0.7666379             -20.8613
       ...           ...                  ...                  ...
        29        2.0000           -0.4548568             -12.3773
        30        2.0000           -0.4459830             -12.1358
        31        2.0000           -0.4437255             -12.0744
        32        2.0000           -0.4336697             -11.8008
        33        2.0000           -0.4263878             -11.6026
        34        2.0000           -0.4261759             -11.5968
        35        2.0000           -0.3983607             -10.8399 (HOMO)
        36                         -0.3325525              -9.0492 (LUMO)
        37                         -0.2169164              -5.9026
        38                         -0.1937100              -5.2711
        39                         -0.1792369              -4.8773
        40                         -0.1358548              -3.6968
       ...                                ...                  ...
        63                          0.6889944              18.7485
      -------------------------------------------------------------
                  HL-Gap            0.0658082 Eh            1.7907 eV
             Fermi-level           -0.3654566 Eh           -9.9446 eV

 SCC (total)                   0 d,  0 h,  0 min,  0.010 sec
 SCC setup                      ...        0 min,  0.000 sec (  3.195%)
 Dispersion                     ...        0 min,  0.000 sec (  1.432%)
 classical contributions        ...        0 min,  0.000 sec (  0.266%)
 integral evaluation            ...        0 min,  0.001 sec ( 12.449%)
 iterations                     ...        0 min,  0.005 sec ( 47.277%)
 molecular gradient             ...        0 min,  0.003 sec ( 29.607%)
 printout                       ...        0 min,  0.001 sec (  5.444%)

         :::::::::::::::::::::::::::::::::::::::::::::::::::::
         ::                     SUMMARY                     ::
         :::::::::::::::::::::::::::::::::::::::::::::::::::::
         :: total energy             -39.530635246305 Eh    ::
         :: gradient norm              0.000071044093 Eh/a0 ::
         :: HOMO-LUMO gap              1.790733269528 eV    ::
         ::.................................................::
         :: SCC energy               -40.051302936195 Eh    ::
         :: -> isotropic ES            0.083952052162 Eh    ::
         :: -> anisotropic ES         -0.002748707538 Eh    ::
         :: -> anisotropic XC          0.011218306235 Eh    ::
         :: -> dispersion             -0.021117077910 Eh    ::
         :: repulsion energy           0.520629297971 Eh    ::
         :: add. restraining           0.000000000000 Eh    ::
         :: total charge               0.000000000000 e     ::
         :::::::::::::::::::::::::::::::::::::::::::::::::::::

           -------------------------------------------------
          |                Property Printout                |
           -------------------------------------------------

    * Orbital Energies and Occupations

         #    Occupation            Energy/Eh            Energy/eV
      -------------------------------------------------------------
         1        2.0000           -0.7666379             -20.8613
       ...           ...                  ...                  ...
        23        2.0000           -0.4915222             -13.3750
        24        2.0000           -0.4822024             -13.1214
        25        2.0000           -0.4771560             -12.9841
        26        2.0000           -0.4754805             -12.9385
        27        2.0000           -0.4686641             -12.7530
        28        2.0000           -0.4596348             -12.5073
        29        2.0000           -0.4548568             -12.3773
        30        2.0000           -0.4459830             -12.1358
        31        2.0000           -0.4437255             -12.0744
        32        2.0000           -0.4336697             -11.8008
        33        2.0000           -0.4263878             -11.6026
        34        2.0000           -0.4261759             -11.5968
        35        2.0000           -0.3983607             -10.8399 (HOMO)
        36                         -0.3325525              -9.0492 (LUMO)
        37                         -0.2169164              -5.9026
        38                         -0.1937100              -5.2711
        39                         -0.1792369              -4.8773
        40                         -0.1358548              -3.6968
        41                          0.0411994               1.1211
        42                          0.0442585               1.2043
        43                          0.0825868               2.2473
        44                          0.0957826               2.6064
        45                          0.1149774               3.1287
        46                          0.1327631               3.6127
       ...                                ...                  ...
        63                          0.6889944              18.7485
      -------------------------------------------------------------
                  HL-Gap            0.0658082 Eh            1.7907 eV
             Fermi-level           -0.3654566 Eh           -9.9446 eV

     #   Z          covCN         q      C6AA      α(0)
     1   5 B        3.111     0.522    14.272     6.301
     2   7 N        2.748    -0.092    23.041     7.129
     3   6 C        3.076     0.044    26.927     8.508
     4   6 C        3.035    -0.051    29.232     8.868
     5   6 C        3.036    -0.043    29.021     8.836
     6   6 C        3.133     0.049    26.703     8.459
     7   6 C        2.900    -0.018    28.451     8.746
     8   6 C        3.133     0.049    26.703     8.459
     9   7 N        2.748    -0.092    23.041     7.129
    10   6 C        3.076     0.044    26.927     8.508
    11   6 C        3.035    -0.051    29.232     8.868
    12   6 C        3.036    -0.043    29.021     8.836
    13   9 F        0.722    -0.369    13.147     4.282
    14   9 F        0.722    -0.369    13.147     4.282
    15   1 H        0.926     0.072     2.058     2.244
    16   1 H        0.926     0.051     2.313     2.378
    17   1 H        0.926     0.050     2.316     2.380
    18   1 H        0.926     0.073     2.050     2.239
    19   1 H        0.926     0.072     2.058     2.244
    20   1 H        0.926     0.051     2.313     2.378
    21   1 H        0.926     0.050     2.316     2.380

 Mol. C6AA /au·bohr⁶  :       6139.253315
 Mol. C8AA /au·bohr⁸  :     152046.062762
 Mol. α(0) /au        :        123.452679


Wiberg/Mayer (AO) data.
largest (>0.10) Wiberg bond orders for each atom

 ---------------------------------------------------------------------------
     #   Z sym  total        # sym  WBO       # sym  WBO       # sym  WBO
 ---------------------------------------------------------------------------
     1   5 B    3.388 --    13 F    0.874    14 F    0.874     9 N    0.794
                             2 N    0.794
     2   7 N    3.615 --     3 C    1.416     6 C    1.150     1 B    0.794
     3   6 C    3.930 --     2 N    1.416     4 C    1.329    15 H    0.966
     4   6 C    3.961 --     5 C    1.535     3 C    1.329    16 H    0.973
     5   6 C    3.954 --     4 C    1.535     6 C    1.248    17 H    0.972
     6   6 C    3.964 --     7 C    1.372     5 C    1.248     2 N    1.150
     7   6 C    3.986 --     6 C    1.372     8 C    1.372    18 H    0.962
     8   6 C    3.964 --     7 C    1.372    12 C    1.248     9 N    1.150
     9   7 N    3.615 --    10 C    1.416     8 C    1.150     1 B    0.794
    10   6 C    3.930 --     9 N    1.416    11 C    1.329    19 H    0.966
    11   6 C    3.961 --    12 C    1.535    10 C    1.329    20 H    0.973
    12   6 C    3.954 --    11 C    1.535     8 C    1.248    21 H    0.972
    13   9 F    0.973 --     1 B    0.874
    14   9 F    0.973 --     1 B    0.874
    15   1 H    0.994 --     3 C    0.966
    16   1 H    0.997 --     4 C    0.973
    17   1 H    0.997 --     5 C    0.972
    18   1 H    0.994 --     7 C    0.962
    19   1 H    0.994 --    10 C    0.966
    20   1 H    0.997 --    11 C    0.973
    21   1 H    0.997 --    12 C    0.972
 ---------------------------------------------------------------------------

Topologies differ in total number of bonds
Writing topology from bond orders to xtbtopo.mol

molecular dipole:
                 x           y           z       tot (Debye)
 q only:        0.000       1.887       0.001
   full:        0.000       1.976       0.001       5.023
molecular quadrupole (traceless):
                xx          xy          yy          xz          yz          zz
 q only:       11.978      -0.001      -4.843      -0.002      -0.002      -7.135
  q+dip:       14.799      -0.001      -2.493      -0.003      -0.007     -12.306
   full:       12.857      -0.001      -4.427      -0.003      -0.003      -8.431

           -------------------------------------------------
          |                Geometry Summary                 |
           -------------------------------------------------

      molecular mass/u    :      191.9734491
   center of mass at/Å    :        0.0000939      -0.0120973       0.0006871
  moments of inertia/u·Å² :        0.3864078E+03   0.7760676E+03   0.1065527E+04
rotational constants/cm⁻¹ :        0.4362653E-01   0.2172186E-01   0.1582094E-01

 * 23 selected distances

     #   Z          #   Z                                           value/Å
     1   5 B        2   7 N                                       1.5502995
     2   7 N        3   6 C                                       1.3262559
     3   6 C        4   6 C                                       1.4025336
     4   6 C        5   6 C                                       1.3757923
     2   7 N        6   6 C                                       1.3797702
     5   6 C        6   6 C                                       1.4164861
     6   6 C        7   6 C                                       1.3852803
     7   6 C        8   6 C                                       1.3852883
     1   5 B        9   7 N                                       1.5503003 (max)
     8   6 C        9   7 N                                       1.3797654
     9   7 N       10   6 C                                       1.3262605
    10   6 C       11   6 C                                       1.4025297
     8   6 C       12   6 C                                       1.4164806
    11   6 C       12   6 C                                       1.3757970
     1   5 B       13   9 F                                       1.3763865
     1   5 B       14   9 F                                       1.3763903
     3   6 C       15   1 H                                       1.0732596
     4   6 C       16   1 H                                       1.0719088
     5   6 C       17   1 H                                       1.0723183
     7   6 C       18   1 H                                       1.0796122
    10   6 C       19   1 H                                       1.0732587
    11   6 C       20   1 H                                       1.0719084 (min)
    12   6 C       21   1 H                                       1.0723182

 * 5 distinct bonds (by element types)

   Z      Z             #   av. dist./Å        max./Å        min./Å
   1 H    6 C           7     1.0735120     1.0796122     1.0719084
   6 C    6 C           8     1.3950235     1.4164861     1.3757923
   5 B    7 N           2     1.5502999     1.5503003     1.5502995
   6 C    7 N           4     1.3530130     1.3797702     1.3262559
   5 B    9 F           2     1.3763884     1.3763903     1.3763865


optimized geometry written to: xtbopt.xyz


           -------------------------------------------------
          | TOTAL ENERGY              -39.530635246305 Eh   |
          | GRADIENT NORM               0.000071044093 Eh/α |
          | HOMO-LUMO GAP               1.790733269528 eV   |
           -------------------------------------------------

------------------------------------------------------------------------
 * finished run on 2024/02/25 at 19:18:26.720     
------------------------------------------------------------------------
 total:
 * wall-time:     0 d,  0 h,  0 min,  0.145 sec
 *  cpu-time:     0 d,  0 h,  0 min,  0.998 sec
 * ratio c/w:     6.882 speedup
 SCF:
 * wall-time:     0 d,  0 h,  0 min,  0.017 sec
 *  cpu-time:     0 d,  0 h,  0 min,  0.107 sec
 * ratio c/w:     6.410 speedup
 ANC optimizer:
 * wall-time:     0 d,  0 h,  0 min,  0.115 sec
 *  cpu-time:     0 d,  0 h,  0 min,  0.800 sec
 * ratio c/w:     6.970 speedup

